 Entering Gaussian System, Link 0=g16
 Initial command:
 /opt/software/Gaussian16/bin/avx/g16/l1.exe "/scratch/Gau-28534.inp" -scrdir="/scratch/"
 Entering Link 1 = /opt/software/Gaussian16/bin/avx/g16/l1.exe PID=     28535.
  
 Copyright (c) 1988-2019, Gaussian, Inc.  All Rights Reserved.
  
 This is part of the Gaussian(R) 16 program.  It is based on
 the Gaussian(R) 09 system (copyright 2009, Gaussian, Inc.),
 the Gaussian(R) 03 system (copyright 2003, Gaussian, Inc.),
 the Gaussian(R) 98 system (copyright 1998, Gaussian, Inc.),
 the Gaussian(R) 94 system (copyright 1995, Gaussian, Inc.),
 the Gaussian 92(TM) system (copyright 1992, Gaussian, Inc.),
 the Gaussian 90(TM) system (copyright 1990, Gaussian, Inc.),
 the Gaussian 88(TM) system (copyright 1988, Gaussian, Inc.),
 the Gaussian 86(TM) system (copyright 1986, Carnegie Mellon
 University), and the Gaussian 82(TM) system (copyright 1983,
 Carnegie Mellon University). Gaussian is a federally registered
 trademark of Gaussian, Inc.
  
 This software contains proprietary and confidential information,
 including trade secrets, belonging to Gaussian, Inc.
  
 This software is provided under written license and may be
 used, copied, transmitted, or stored only in accord with that
 written license.
  
 The following legend is applicable only to US Government
 contracts under FAR:
  
                    RESTRICTED RIGHTS LEGEND
  
 Use, reproduction and disclosure by the US Government is
 subject to restrictions as set forth in subparagraphs (a)
 and (c) of the Commercial Computer Software - Restricted
 Rights clause in FAR 52.227-19.
  
 Gaussian, Inc.
 340 Quinnipiac St., Bldg. 40, Wallingford CT 06492
  
  
 ---------------------------------------------------------------
 Warning -- This program may not be used in any manner that
 competes with the business of Gaussian, Inc. or will provide
 assistance to any competitor of Gaussian, Inc.  The licensee
 of this program is prohibited from giving any competitor of
 Gaussian, Inc. access to this program.  By using this program,
 the user acknowledges that Gaussian, Inc. is engaged in the
 business of creating and licensing software in the field of
 computational chemistry and represents and warrants to the
 licensee that it is not a competitor of Gaussian, Inc. and that
 it will not use this program in any manner prohibited above.
 ---------------------------------------------------------------
  

 Cite this work as:
 Gaussian 16, Revision C.01,
 M. J. Frisch, G. W. Trucks, H. B. Schlegel, G. E. Scuseria, 
 M. A. Robb, J. R. Cheeseman, G. Scalmani, V. Barone, 
 G. A. Petersson, H. Nakatsuji, X. Li, M. Caricato, A. V. Marenich, 
 J. Bloino, B. G. Janesko, R. Gomperts, B. Mennucci, H. P. Hratchian, 
 J. V. Ortiz, A. F. Izmaylov, J. L. Sonnenberg, D. Williams-Young, 
 F. Ding, F. Lipparini, F. Egidi, J. Goings, B. Peng, A. Petrone, 
 T. Henderson, D. Ranasinghe, V. G. Zakrzewski, J. Gao, N. Rega, 
 G. Zheng, W. Liang, M. Hada, M. Ehara, K. Toyota, R. Fukuda, 
 J. Hasegawa, M. Ishida, T. Nakajima, Y. Honda, O. Kitao, H. Nakai, 
 T. Vreven, K. Throssell, J. A. Montgomery, Jr., J. E. Peralta, 
 F. Ogliaro, M. J. Bearpark, J. J. Heyd, E. N. Brothers, K. N. Kudin, 
 V. N. Staroverov, T. A. Keith, R. Kobayashi, J. Normand, 
 K. Raghavachari, A. P. Rendell, J. C. Burant, S. S. Iyengar, 
 J. Tomasi, M. Cossi, J. M. Millam, M. Klene, C. Adamo, R. Cammi, 
 J. W. Ochterski, R. L. Martin, K. Morokuma, O. Farkas, 
 J. B. Foresman, and D. J. Fox, Gaussian, Inc., Wallingford CT, 2019.
 
 ******************************************
 Gaussian 16:  ES64L-G16RevC.01  3-Jul-2019
                29-Sep-2019 
 ******************************************
 %chk=Acetonitrile-Water_1.chk
 %nproc=8
 Will use up to    8 processors via shared memory.
 %mem=20GB
 ----------------------------------------------
 # opt(ModRedundant) freq b3lyp/6-31g(d) nosymm
 ----------------------------------------------
 1/18=120,19=15,26=3,38=1/1,3;
 2/9=110,12=2,15=1,17=6,18=5,40=1/2;
 3/5=1,6=6,7=1,11=2,25=1,30=1,71=1,74=-5/1,2,3;
 4//1;
 5/5=2,38=5/2;
 6/7=2,8=2,9=2,10=2,28=1/1;
 7/30=1/1,2,3,16;
 1/18=20,19=15,26=3/3(2);
 2/9=110,15=1/2;
 99//99;
 2/9=110,15=1/2;
 3/5=1,6=6,7=1,11=2,25=1,30=1,71=1,74=-5/1,2,3;
 4/5=5,16=3,69=1/1;
 5/5=2,38=5/2;
 7/30=1/1,2,3,16;
 1/18=20,19=15,26=3/3(-5);
 2/9=110,15=1/2;
 6/7=2,8=2,9=2,10=2,19=2,28=1/1;
 99/9=1/99;
 ------------
 Optimization
 ------------
 Symbolic Z-matrix:
 Charge =  0 Multiplicity = 1
 N(Fragment=1)         1.2608    0.        0. 
 C(Fragment=1)        -1.3613    0.        0. 
 C(Fragment=1)         0.1006    0.        0. 
 H(Fragment=1)        -1.75     -0.8301    0.5974 
 H(Fragment=1)        -1.7501   -0.1022   -1.0175 
 H(Fragment=1)        -1.75      0.9324    0.4202 
 O(Fragment=2)         4.216     0.4711    0.2121 
 H(Fragment=2)         4.9289   -0.1176   -0.0394 
 H(Fragment=2)         4.6727    1.2561    0.5375 
 
 Add virtual bond connecting atoms O7         and N1         Dist= 5.67D+00.
 The following ModRedundant input section has been read:
 

 GradGradGradGradGradGradGradGradGradGradGradGradGradGradGradGradGradGrad
 Berny optimization.
 Initialization pass.
                           ----------------------------
                           !    Initial Parameters    !
                           ! (Angstroms and Degrees)  !
 --------------------------                            --------------------------
 ! Name  Definition              Value          Derivative Info.                !
 --------------------------------------------------------------------------------
 ! R1    R(1,3)                  1.1602         estimate D2E/DX2                !
 ! R2    R(1,7)                  3.0            estimate D2E/DX2                !
 ! R3    R(2,3)                  1.4619         estimate D2E/DX2                !
 ! R4    R(2,4)                  1.0941         estimate D2E/DX2                !
 ! R5    R(2,5)                  1.094          estimate D2E/DX2                !
 ! R6    R(2,6)                  1.0941         estimate D2E/DX2                !
 ! R7    R(7,8)                  0.9581         estimate D2E/DX2                !
 ! R8    R(7,9)                  0.9647         estimate D2E/DX2                !
 ! A1    A(3,2,4)              110.8101         estimate D2E/DX2                !
 ! A2    A(3,2,5)              110.8168         estimate D2E/DX2                !
 ! A3    A(3,2,6)              110.8102         estimate D2E/DX2                !
 ! A4    A(4,2,5)              108.1009         estimate D2E/DX2                !
 ! A5    A(4,2,6)              108.099          estimate D2E/DX2                !
 ! A6    A(5,2,6)              108.0923         estimate D2E/DX2                !
 ! A7    A(1,7,8)              128.1617         estimate D2E/DX2                !
 ! A8    A(1,7,9)              128.1669         estimate D2E/DX2                !
 ! A9    A(8,7,9)              103.6659         estimate D2E/DX2                !
 ! A10   L(3,1,7,6,-1)         170.0835         estimate D2E/DX2                !
 ! A11   L(1,3,2,4,-1)         180.0            estimate D2E/DX2                !
 ! A12   L(3,1,7,6,-2)         180.0076         estimate D2E/DX2                !
 ! A13   L(1,3,2,4,-2)         180.0            estimate D2E/DX2                !
 ! D1    D(4,2,7,8)             60.8526         estimate D2E/DX2                !
 ! D2    D(4,2,7,9)           -119.9622         estimate D2E/DX2                !
 ! D3    D(5,2,7,8)            -62.913          estimate D2E/DX2                !
 ! D4    D(5,2,7,9)            116.2722         estimate D2E/DX2                !
 ! D5    D(6,2,7,8)            178.9731         estimate D2E/DX2                !
 ! D6    D(6,2,7,9)             -1.8417         estimate D2E/DX2                !
 --------------------------------------------------------------------------------
 Trust Radius=3.00D-01 FncErr=1.00D-07 GrdErr=1.00D-06 EigMax=2.50D+02 EigMin=1.00D-04
 Number of steps in this run=     37 maximum allowed number of steps=    100.
 GradGradGradGradGradGradGradGradGradGradGradGradGradGradGradGradGradGrad

                          Input orientation:                          
 ---------------------------------------------------------------------
 Center     Atomic      Atomic             Coordinates (Angstroms)
 Number     Number       Type             X           Y           Z
 ---------------------------------------------------------------------
      1          7           0        1.260800    0.000000    0.000000
      2          6           0       -1.361300    0.000000    0.000000
      3          6           0        0.100600    0.000000    0.000000
      4          1           0       -1.750000   -0.830100    0.597400
      5          1           0       -1.750100   -0.102200   -1.017500
      6          1           0       -1.750000    0.932400    0.420200
      7          8           0        4.216000    0.471100    0.212100
      8          1           0        4.928900   -0.117600   -0.039400
      9          1           0        4.672700    1.256100    0.537500
 ---------------------------------------------------------------------
                    Distance matrix (angstroms):
                    1          2          3          4          5
     1  N    0.000000
     2  C    2.622100   0.000000
     3  C    1.160200   1.461900   0.000000
     4  H    3.179759   1.094093   2.114397   0.000000
     5  H    3.179822   1.094037   2.114436   1.771367   0.000000
     6  H    3.179757   1.094087   2.114393   1.771385   1.771265
     7  O    3.000021   5.601178   4.147703   6.118393   6.118410
     8  H    3.670196   6.291423   4.829893   6.746916   6.750256
     9  H    3.675290   6.186748   4.771875   6.753288   6.746508
                    6          7          8          9
     6  H    0.000000
     7  O    5.987425   0.000000
     8  H    6.776536   0.958147   0.000000
     9  H    6.431922   0.964720   1.511788   0.000000
 Symmetry turned off by external request.
 Stoichiometry    C2H5NO
 Framework group  C1[X(C2H5NO)]
 Deg. of freedom    21
 Full point group                 C1      NOp   1
 Rotational constants (GHZ):         102.3815371           1.7103392           1.7001357
 Standard basis: 6-31G(d) (6D, 7F)
    70 basis functions,   132 primitive gaussians,    70 cartesian basis functions
    16 alpha electrons       16 beta electrons
       nuclear repulsion energy        94.8821147280 Hartrees.
 NAtoms=    9 NActive=    9 NUniq=    9 SFac= 1.00D+00 NAtFMM=   60 NAOKFM=F Big=F
 Integral buffers will be    131072 words long.
 Raffenetti 2 integral format.
 Two-electron integral symmetry is turned off.
 One-electron integrals computed using PRISM.
 NBasis=    70 RedAO= T EigKep=  1.47D-03  NBF=    70
 NBsUse=    70 1.00D-06 EigRej= -1.00D+00 NBFU=    70
 ExpMin= 1.61D-01 ExpMax= 5.48D+03 ExpMxC= 8.25D+02 IAcc=3 IRadAn=         5 AccDes= 0.00D+00
 Harris functional with IExCor=  402 and IRadAn=       5 diagonalized for initial guess.
 HarFok:  IExCor=  402 AccDes= 0.00D+00 IRadAn=         5 IDoV= 1 UseB2=F ITyADJ=14
 ICtDFT=  3500011 ScaDFX=  1.000000  1.000000  1.000000  1.000000
 FoFCou: FMM=F IPFlag=           0 FMFlag=      100000 FMFlg1=           0
         NFxFlg=           0 DoJE=T BraDBF=F KetDBF=T FulRan=T
         wScrn=  0.000000 ICntrl=       500 IOpCl=  0 I1Cent=   200000004 NGrid=           0
         NMat0=    1 NMatS0=      1 NMatT0=    0 NMatD0=    1 NMtDS0=    0 NMtDT0=    0
 Symmetry not used in FoFCou.
 Keep R1 ints in memory in canonical form, NReq=10237397.
 Requested convergence on RMS density matrix=1.00D-08 within 128 cycles.
 Requested convergence on MAX density matrix=1.00D-06.
 Requested convergence on             energy=1.00D-06.
 No special actions if energy rises.
 Integral accuracy reduced to 1.0D-05 until final iterations.
 Initial convergence to 1.0D-05 achieved.  Increase integral accuracy.
 SCF Done:  E(RB3LYP) =  -209.157665172     A.U. after   13 cycles
            NFock= 13  Conv=0.48D-08     -V/T= 2.0088

 **********************************************************************

            Population analysis using the SCF Density.

 **********************************************************************

 Alpha  occ. eigenvalues --  -19.11551 -14.31718 -10.23030 -10.21544  -0.98020
 Alpha  occ. eigenvalues --   -0.88747  -0.76543  -0.50686  -0.49915  -0.45368
 Alpha  occ. eigenvalues --   -0.45366  -0.35776  -0.32778  -0.31165  -0.31162
 Alpha  occ. eigenvalues --   -0.26979
 Alpha virt. eigenvalues --    0.05013   0.05038   0.08137   0.09270   0.16744
 Alpha virt. eigenvalues --    0.17080   0.17088   0.19704   0.29683   0.53898
 Alpha virt. eigenvalues --    0.53918   0.58665   0.63965   0.63989   0.66955
 Alpha virt. eigenvalues --    0.78094   0.79963   0.81772   0.82840   0.85511
 Alpha virt. eigenvalues --    0.86663   0.89231   0.89565   0.92704   1.03783
 Alpha virt. eigenvalues --    1.09618   1.11380   1.21307   1.39950   1.41850
 Alpha virt. eigenvalues --    1.41890   1.53766   1.53771   1.61756   1.76699
 Alpha virt. eigenvalues --    1.77860   1.80289   1.90167   1.90169   1.97811
 Alpha virt. eigenvalues --    1.97829   2.16644   2.21557   2.21562   2.31516
 Alpha virt. eigenvalues --    2.61361   2.76966   2.76975   2.83489   3.19446
 Alpha virt. eigenvalues --    3.62459   4.01069   4.12918   4.57770
          Condensed to atoms (all electrons):
               1          2          3          4          5          6
     1  N    6.702935  -0.086365   0.822058  -0.000208  -0.000208  -0.000293
     2  C   -0.086365   5.197434   0.308339   0.366676   0.366674   0.366982
     3  C    0.822058   0.308339   4.593514  -0.023837  -0.023831  -0.024067
     4  H   -0.000208   0.366676  -0.023837   0.505971  -0.026066  -0.026036
     5  H   -0.000208   0.366674  -0.023831  -0.026066   0.505993  -0.026052
     6  H   -0.000293   0.366982  -0.024067  -0.026036  -0.026052   0.506106
     7  O    0.001884   0.000000   0.000618   0.000000   0.000000   0.000000
     8  H    0.000359   0.000000  -0.000024  -0.000000  -0.000000  -0.000000
     9  H    0.000345   0.000000  -0.000023  -0.000000  -0.000000  -0.000000
               7          8          9
     1  N    0.001884   0.000359   0.000345
     2  C    0.000000   0.000000   0.000000
     3  C    0.000618  -0.000024  -0.000023
     4  H    0.000000  -0.000000  -0.000000
     5  H    0.000000  -0.000000  -0.000000
     6  H    0.000000  -0.000000  -0.000000
     7  O    8.276140   0.238080   0.237130
     8  H    0.238080   0.405057  -0.022831
     9  H    0.237130  -0.022831   0.408240
 Mulliken charges:
               1
     1  N   -0.440507
     2  C   -0.519740
     3  C    0.347253
     4  H    0.203500
     5  H    0.203489
     6  H    0.203360
     7  O   -0.753852
     8  H    0.379359
     9  H    0.377138
 Sum of Mulliken charges =  -0.00000
 Mulliken charges with hydrogens summed into heavy atoms:
               1
     1  N   -0.440507
     2  C    0.090609
     3  C    0.347253
     7  O    0.002645
         Mulliken charges condensed to fragments:
      1     -0.002645
      2      0.002645
 Electronic spatial extent (au):  <R**2>=            850.2078
 Charge=             -0.0000 electrons
 Dipole moment (field-independent basis, Debye):
    X=             -1.5279    Y=              0.3385    Z=              0.1281  Tot=              1.5701
 Quadrupole moment (field-independent basis, Debye-Ang):
   XX=             -7.5059   YY=            -21.8127   ZZ=            -24.0314
   XY=              2.1367   XZ=              0.8518   YZ=              1.1246
 Traceless Quadrupole moment (field-independent basis, Debye-Ang):
   XX=             10.2774   YY=             -4.0294   ZZ=             -6.2481
   XY=              2.1367   XZ=              0.8518   YZ=              1.1246
 Octapole moment (field-independent basis, Debye-Ang**2):
  XXX=             36.0648  YYY=             -6.1651  ZZZ=             -5.0495  XYY=            -16.5838
  XXY=              9.2107  XXZ=              3.6624  XZZ=            -26.9107  YZZ=             -2.9538
  YYZ=              0.8565  XYZ=              5.2470
 Hexadecapole moment (field-independent basis, Debye-Ang**3):
 XXXX=           -185.5250 YYYY=            -34.4802 ZZZZ=            -29.8526 XXXY=             26.9298
 XXXZ=             10.0473 YYYX=            -26.5248 YYYZ=             -0.4326 ZZZX=            -17.3671
 ZZZY=             -2.2665 XXYY=           -107.6423 XXZZ=           -154.2824 YYZZ=            -10.6644
 XXYZ=             23.6763 YYXZ=             -0.0013 ZZXY=            -11.1476
 N-N= 9.488211472799D+01 E-N=-6.790468390521D+02  KE= 2.073356596513D+02
 Calling FoFJK, ICntrl=      2127 FMM=F ISym2X=0 I1Cent= 0 IOpClX= 0 NMat=1 NMatS=1 NMatT=0.
 -------------------------------------------------------------------
 Center     Atomic                   Forces (Hartrees/Bohr)
 Number     Number              X              Y              Z
 -------------------------------------------------------------------
      1        7          -0.002052537   -0.001103203   -0.000498747
      2        6          -0.001587116    0.000084222    0.000068891
      3        6          -0.002925988    0.000128043    0.000050595
      4        1           0.000763047   -0.000674911    0.000497679
      5        1           0.000760798   -0.000086446   -0.000873435
      6        1           0.000729932    0.000766757    0.000354766
      7        8          -0.005517770    0.004402792    0.001955053
      8        1           0.007925218   -0.007007023   -0.002997140
      9        1           0.001904417    0.003489769    0.001442337
 -------------------------------------------------------------------
 Cartesian Forces:  Max     0.007925218 RMS     0.002809373

 GradGradGradGradGradGradGradGradGradGradGradGradGradGradGradGradGradGrad
 Berny optimization.
 FormGI is forming the generalized inverse of G from B-inverse, IUseBI=4.
 Internal  Forces:  Max     0.010988585 RMS     0.002520210
 Search for a local minimum.
 Step number   1 out of a maximum of   37
 All quantities printed in internal units (Hartrees-Bohrs-Radians)
 Mixed Optimization -- RFO/linear search
 Second derivative matrix not updated -- first step.
 ITU=  0
     Eigenvalues ---    0.00230   0.00230   0.00230   0.00231   0.01048
     Eigenvalues ---    0.01204   0.01800   0.07454   0.08172   0.16000
     Eigenvalues ---    0.16000   0.16000   0.16000   0.16000   0.34344
     Eigenvalues ---    0.34345   0.34350   0.36727   0.54470   0.55874
     Eigenvalues ---    1.27661
 RFO step:  Lambda=-1.42560952D-03 EMin= 2.30000000D-03
 Linear search not attempted -- first point.
 Iteration  1 RMS(Cart)=  0.11599132 RMS(Int)=  0.00582448
 Iteration  2 RMS(Cart)=  0.00786316 RMS(Int)=  0.00057945
 Iteration  3 RMS(Cart)=  0.00003375 RMS(Int)=  0.00057922
 Iteration  4 RMS(Cart)=  0.00000001 RMS(Int)=  0.00057922
 Variable       Old X    -DE/DX   Delta X   Delta X   Delta X     New X
                                 (Linear)    (Quad)   (Total)
    R1        2.19246   0.00226   0.00000   0.00177   0.00179   2.19426
    R2        5.66922   0.00441   0.00000   0.22720   0.22718   5.89640
    R3        2.76259  -0.00067   0.00000  -0.00180  -0.00178   2.76081
    R4        2.06754   0.00051   0.00000   0.00149   0.00149   2.06902
    R5        2.06743   0.00055   0.00000   0.00159   0.00159   2.06902
    R6        2.06752   0.00053   0.00000   0.00154   0.00154   2.06906
    R7        1.81064   0.01099   0.00000   0.01962   0.01962   1.83025
    R8        1.82306   0.00423   0.00000   0.00774   0.00774   1.83080
    A1        1.93400  -0.00102   0.00000  -0.00668  -0.00728   1.92672
    A2        1.93412  -0.00103   0.00000  -0.00676  -0.00741   1.92671
    A3        1.93400  -0.00092   0.00000  -0.00512  -0.00425   1.92975
    A4        1.88672   0.00100   0.00000   0.00520   0.00381   1.89053
    A5        1.88668   0.00104   0.00000   0.00705   0.00795   1.89464
    A6        1.88657   0.00107   0.00000   0.00719   0.00796   1.89453
    A7        2.23684  -0.00039   0.00000  -0.00241  -0.00241   2.23443
    A8        2.23693   0.00009   0.00000   0.00056   0.00056   2.23749
    A9        1.80931   0.00029   0.00000   0.00180   0.00180   1.81111
   A10        2.96852  -0.00072   0.00000  -0.17059  -0.16978   2.79874
   A11        3.14159   0.00008   0.00000   0.00172   0.00120   3.14279
   A12        3.14172  -0.00001   0.00000  -0.00161  -0.00160   3.14013
   A13        3.14159  -0.00008   0.00000  -0.00236  -0.00189   3.13971
    D1        1.06208   0.00003   0.00000   0.03454   0.03544   1.09752
    D2       -2.09373   0.00002   0.00000   0.03334   0.03424  -2.05950
    D3       -1.09804  -0.00003   0.00000  -0.03367  -0.03451  -1.13255
    D4        2.02933  -0.00003   0.00000  -0.03488  -0.03572   1.99361
    D5        3.12367   0.00000   0.00000   0.00058   0.00052   3.12419
    D6       -0.03214   0.00000   0.00000  -0.00063  -0.00069  -0.03283
         Item               Value     Threshold  Converged?
 Maximum Force            0.010989     0.000450     NO 
 RMS     Force            0.002520     0.000300     NO 
 Maximum Displacement     0.391324     0.001800     NO 
 RMS     Displacement     0.121352     0.001200     NO 
 Predicted change in Energy=-7.727604D-04
 GradGradGradGradGradGradGradGradGradGradGradGradGradGradGradGradGradGrad

                          Input orientation:                          
 ---------------------------------------------------------------------
 Center     Atomic      Atomic             Coordinates (Angstroms)
 Number     Number       Type             X           Y           Z
 ---------------------------------------------------------------------
      1          7           0        1.230694   -0.207080   -0.093315
      2          6           0       -1.379650    0.019130    0.008597
      3          6           0        0.074669   -0.107879   -0.048213
      4          1           0       -1.808740   -0.779942    0.621888
      5          1           0       -1.808251   -0.050596   -0.996492
      6          1           0       -1.664906    0.982933    0.442785
      7          8           0        4.254804    0.493266    0.223179
      8          1           0        5.020924   -0.051642   -0.009591
      9          1           0        4.648057    1.311509    0.561462
 ---------------------------------------------------------------------
                    Distance matrix (angstroms):
                    1          2          3          4          5
     1  N    0.000000
     2  C    2.622109   0.000000
     3  C    1.161150   1.460959   0.000000
     4  H    3.174563   1.094880   2.109013   0.000000
     5  H    3.174178   1.094881   2.109005   1.775134   0.000000
     6  H    3.176167   1.094900   2.111178   1.777779   1.777709
     7  O    3.120239   5.658438   4.231850   6.208591   6.208383
     8  H    3.794340   6.400991   4.946726   6.897355   6.900117
     9  H    3.796474   6.189439   4.827240   6.787345   6.779858
                    6          7          8          9
     6  H    0.000000
     7  O    5.943986   0.000000
     8  H    6.780510   0.968528   0.000000
     9  H    6.322622   0.968817   1.524242   0.000000
 Symmetry turned off by external request.
 Stoichiometry    C2H5NO
 Framework group  C1[X(C2H5NO)]
 Deg. of freedom    21
 Full point group                 C1      NOp   1
 Rotational constants (GHZ):          73.6932099           1.6716324           1.6515248
 Standard basis: 6-31G(d) (6D, 7F)
    70 basis functions,   132 primitive gaussians,    70 cartesian basis functions
    16 alpha electrons       16 beta electrons
       nuclear repulsion energy        94.1488656824 Hartrees.
 NAtoms=    9 NActive=    9 NUniq=    9 SFac= 1.00D+00 NAtFMM=   60 NAOKFM=F Big=F
 Integral buffers will be    131072 words long.
 Raffenetti 2 integral format.
 Two-electron integral symmetry is turned off.
 One-electron integrals computed using PRISM.
 NBasis=    70 RedAO= T EigKep=  1.50D-03  NBF=    70
 NBsUse=    70 1.00D-06 EigRej= -1.00D+00 NBFU=    70
 Initial guess from the checkpoint file:  "Acetonitrile-Water_1.chk"
 B after Tr=    -0.006418   -0.098741   -0.044229
         Rot=    0.999998   -0.000072    0.000862   -0.001797 Ang=  -0.23 deg.
 ExpMin= 1.61D-01 ExpMax= 5.48D+03 ExpMxC= 8.25D+02 IAcc=3 IRadAn=         5 AccDes= 0.00D+00
 Harris functional with IExCor=  402 and IRadAn=       5 diagonalized for initial guess.
 HarFok:  IExCor=  402 AccDes= 0.00D+00 IRadAn=         5 IDoV= 1 UseB2=F ITyADJ=14
 ICtDFT=  3500011 ScaDFX=  1.000000  1.000000  1.000000  1.000000
 FoFCou: FMM=F IPFlag=           0 FMFlag=      100000 FMFlg1=           0
         NFxFlg=           0 DoJE=T BraDBF=F KetDBF=T FulRan=T
         wScrn=  0.000000 ICntrl=       500 IOpCl=  0 I1Cent=   200000004 NGrid=           0
         NMat0=    1 NMatS0=      1 NMatT0=    0 NMatD0=    1 NMtDS0=    0 NMtDT0=    0
 Symmetry not used in FoFCou.
 Keep R1 ints in memory in canonical form, NReq=10237397.
 Requested convergence on RMS density matrix=1.00D-08 within 128 cycles.
 Requested convergence on MAX density matrix=1.00D-06.
 Requested convergence on             energy=1.00D-06.
 No special actions if energy rises.
 Integral accuracy reduced to 1.0D-05 until final iterations.
 Initial convergence to 1.0D-05 achieved.  Increase integral accuracy.
 SCF Done:  E(RB3LYP) =  -209.158829822     A.U. after   12 cycles
            NFock= 12  Conv=0.45D-08     -V/T= 2.0090
 Calling FoFJK, ICntrl=      2127 FMM=F ISym2X=0 I1Cent= 0 IOpClX= 0 NMat=1 NMatS=1 NMatT=0.
 -------------------------------------------------------------------
 Center     Atomic                   Forces (Hartrees/Bohr)
 Number     Number              X              Y              Z
 -------------------------------------------------------------------
      1        7          -0.003543899   -0.001343567   -0.000585285
      2        6          -0.000931725   -0.000272667   -0.000104611
      3        6           0.001137970    0.000386380    0.000122672
      4        1           0.000103055    0.000151730    0.000165232
      5        1           0.000112941    0.000214229    0.000000101
      6        1           0.000176377   -0.000127167   -0.000048255
      7        8           0.002105564    0.001152569    0.000545479
      8        1           0.000310750   -0.000155524   -0.000080705
      9        1           0.000528968   -0.000005983   -0.000014629
 -------------------------------------------------------------------
 Cartesian Forces:  Max     0.003543899 RMS     0.000937995

 GradGradGradGradGradGradGradGradGradGradGradGradGradGradGradGradGradGrad
 Berny optimization.
 Using GEDIIS/GDIIS optimizer.
 FormGI is forming the generalized inverse of G from B-inverse, IUseBI=4.
 Internal  Forces:  Max     0.003117306 RMS     0.000671693
 Search for a local minimum.
 Step number   2 out of a maximum of   37
 All quantities printed in internal units (Hartrees-Bohrs-Radians)
 Mixed Optimization -- En-DIIS/RFO-DIIS
 Update second derivatives using D2CorX and points    1    2
 DE= -1.16D-03 DEPred=-7.73D-04 R= 1.51D+00
 TightC=F SS=  1.41D+00  RLast= 2.93D-01 DXNew= 5.0454D-01 8.8015D-01
 Trust test= 1.51D+00 RLast= 2.93D-01 DXMaxT set to 5.05D-01
 ITU=  1  0
 Use linear search instead of GDIIS.
 Linear search step of   0.559 exceeds DXMaxT=   0.505 but not scaled.
 Quartic linear search produced a step of  1.95981.
 Iteration  1 RMS(Cart)=  0.14265750 RMS(Int)=  0.05323052
 Iteration  2 RMS(Cart)=  0.08807186 RMS(Int)=  0.00725586
 Iteration  3 RMS(Cart)=  0.00567032 RMS(Int)=  0.00328101
 Iteration  4 RMS(Cart)=  0.00005059 RMS(Int)=  0.00328099
 Iteration  5 RMS(Cart)=  0.00000079 RMS(Int)=  0.00328099
 Variable       Old X    -DE/DX   Delta X   Delta X   Delta X     New X
                                 (Linear)    (Quad)   (Total)
    R1        2.19426  -0.00055   0.00352   0.00000   0.00385   2.19810
    R2        5.89640   0.00312   0.44523   0.00000   0.44497   6.34137
    R3        2.76081   0.00054  -0.00348   0.00000  -0.00315   2.75766
    R4        2.06902  -0.00006   0.00291   0.00000   0.00291   2.07193
    R5        2.06902  -0.00006   0.00313   0.00000   0.00313   2.07215
    R6        2.06906  -0.00018   0.00301   0.00000   0.00301   2.07208
    R7        1.83025   0.00035   0.03845   0.00000   0.03845   1.86870
    R8        1.83080   0.00020   0.01517   0.00000   0.01517   1.84597
    A1        1.92672  -0.00009  -0.01426   0.00000  -0.01871   1.90801
    A2        1.92671  -0.00012  -0.01452   0.00000  -0.01905   1.90766
    A3        1.92975  -0.00015  -0.00834   0.00000  -0.00344   1.92631
    A4        1.89053   0.00013   0.00747   0.00000   0.00096   1.89149
    A5        1.89464   0.00013   0.01559   0.00000   0.02069   1.91533
    A6        1.89453   0.00012   0.01560   0.00000   0.02014   1.91466
    A7        2.23443  -0.00023  -0.00472   0.00000  -0.00475   2.22969
    A8        2.23749   0.00056   0.00109   0.00000   0.00107   2.23856
    A9        1.81111  -0.00033   0.00353   0.00000   0.00350   1.81462
   A10        2.79874  -0.00095  -0.33273   0.00000  -0.32733   2.47140
   A11        3.14279  -0.00010   0.00235   0.00000  -0.00128   3.14151
   A12        3.14013  -0.00001  -0.00313   0.00000  -0.00312   3.13701
   A13        3.13971   0.00002  -0.00369   0.00000  -0.00062   3.13909
    D1        1.09752   0.00022   0.06946   0.00000   0.07419   1.17171
    D2       -2.05950   0.00021   0.06709   0.00000   0.07182  -1.98768
    D3       -1.13255  -0.00020  -0.06764   0.00000  -0.07213  -1.20468
    D4        1.99361  -0.00021  -0.07001   0.00000  -0.07449   1.91912
    D5        3.12419  -0.00001   0.00102   0.00000   0.00078   3.12497
    D6       -0.03283  -0.00002  -0.00134   0.00000  -0.00159  -0.03442
         Item               Value     Threshold  Converged?
 Maximum Force            0.003117     0.000450     NO 
 RMS     Force            0.000672     0.000300     NO 
 Maximum Displacement     0.760244     0.001800     NO 
 RMS     Displacement     0.231208     0.001200     NO 
 Predicted change in Energy=-7.676960D-04
 GradGradGradGradGradGradGradGradGradGradGradGradGradGradGradGradGradGrad

                          Input orientation:                          
 ---------------------------------------------------------------------
 Center     Atomic      Atomic             Coordinates (Angstroms)
 Number     Number       Type             X           Y           Z
 ---------------------------------------------------------------------
      1          7           0        1.150813   -0.609384   -0.278395
      2          6           0       -1.364964    0.064168    0.029126
      3          6           0        0.034767   -0.311025   -0.142669
      4          1           0       -1.860578   -0.669835    0.675456
      5          1           0       -1.864284    0.058014   -0.947107
      6          1           0       -1.440383    1.062347    0.476621
      7          8           0        4.261471    0.535241    0.245454
      8          1           0        5.115939    0.076962    0.051203
      9          1           0        4.534817    1.403211    0.600611
 ---------------------------------------------------------------------
                    Distance matrix (angstroms):
                    1          2          3          4          5
     1  N    0.000000
     2  C    2.622475   0.000000
     3  C    1.163185   1.459291   0.000000
     4  H    3.159424   1.096420   2.095330   0.000000
     5  H    3.159653   1.096535   2.095162   1.778339   0.000000
     6  H    3.174749   1.096495   2.108492   1.793476   1.793148
     7  O    3.355708   5.650264   4.328029   6.254326   6.258980
     8  H    4.037564   6.480953   5.099650   7.044089   7.051277
     9  H    4.034187   6.076763   4.872527   6.723407   6.719634
                    6          7          8          9
     6  H    0.000000
     7  O    5.730831   0.000000
     8  H    6.643593   0.988872   0.000000
     9  H    5.986199   0.976845   1.548705   0.000000
 Symmetry turned off by external request.
 Stoichiometry    C2H5NO
 Framework group  C1[X(C2H5NO)]
 Deg. of freedom    21
 Full point group                 C1      NOp   1
 Rotational constants (GHZ):          35.6651927           1.6626611           1.6046939
 Standard basis: 6-31G(d) (6D, 7F)
    70 basis functions,   132 primitive gaussians,    70 cartesian basis functions
    16 alpha electrons       16 beta electrons
       nuclear repulsion energy        93.1014989903 Hartrees.
 NAtoms=    9 NActive=    9 NUniq=    9 SFac= 1.00D+00 NAtFMM=   60 NAOKFM=F Big=F
 Integral buffers will be    131072 words long.
 Raffenetti 2 integral format.
 Two-electron integral symmetry is turned off.
 One-electron integrals computed using PRISM.
 NBasis=    70 RedAO= T EigKep=  1.53D-03  NBF=    70
 NBsUse=    70 1.00D-06 EigRej= -1.00D+00 NBFU=    70
 Initial guess from the checkpoint file:  "Acetonitrile-Water_1.chk"
 B after Tr=    -0.031210   -0.187998   -0.086558
         Rot=    0.999992   -0.000434    0.001767   -0.003500 Ang=  -0.45 deg.
 ExpMin= 1.61D-01 ExpMax= 5.48D+03 ExpMxC= 8.25D+02 IAcc=3 IRadAn=         5 AccDes= 0.00D+00
 Harris functional with IExCor=  402 and IRadAn=       5 diagonalized for initial guess.
 HarFok:  IExCor=  402 AccDes= 0.00D+00 IRadAn=         5 IDoV= 1 UseB2=F ITyADJ=14
 ICtDFT=  3500011 ScaDFX=  1.000000  1.000000  1.000000  1.000000
 FoFCou: FMM=F IPFlag=           0 FMFlag=      100000 FMFlg1=           0
         NFxFlg=           0 DoJE=T BraDBF=F KetDBF=T FulRan=T
         wScrn=  0.000000 ICntrl=       500 IOpCl=  0 I1Cent=   200000004 NGrid=           0
         NMat0=    1 NMatS0=      1 NMatT0=    0 NMatD0=    1 NMtDS0=    0 NMtDT0=    0
 Symmetry not used in FoFCou.
 Keep R1 ints in memory in canonical form, NReq=10237397.
 Requested convergence on RMS density matrix=1.00D-08 within 128 cycles.
 Requested convergence on MAX density matrix=1.00D-06.
 Requested convergence on             energy=1.00D-06.
 No special actions if energy rises.
 Integral accuracy reduced to 1.0D-05 until final iterations.
 Initial convergence to 1.0D-05 achieved.  Increase integral accuracy.
 SCF Done:  E(RB3LYP) =  -209.159681940     A.U. after   14 cycles
            NFock= 14  Conv=0.38D-08     -V/T= 2.0093
 Calling FoFJK, ICntrl=      2127 FMM=F ISym2X=0 I1Cent= 0 IOpClX= 0 NMat=1 NMatS=1 NMatT=0.
 -------------------------------------------------------------------
 Center     Atomic                   Forces (Hartrees/Bohr)
 Number     Number              X              Y              Z
 -------------------------------------------------------------------
      1        7          -0.007402618    0.000336738    0.000112725
      2        6           0.000189204   -0.002532384   -0.001294447
      3        6           0.009284650   -0.001100684   -0.000423544
      4        1          -0.000980794    0.002443329    0.000213323
      5        1          -0.000975902    0.001753470    0.001744721
      6        1          -0.001323497   -0.001735882   -0.000736370
      7        8           0.016888258   -0.001571983   -0.000669506
      8        1          -0.015270295    0.009311831    0.003907003
      9        1          -0.000409005   -0.006904434   -0.002853904
 -------------------------------------------------------------------
 Cartesian Forces:  Max     0.016888258 RMS     0.005608436

 GradGradGradGradGradGradGradGradGradGradGradGradGradGradGradGradGradGrad
 Berny optimization.
 Using GEDIIS/GDIIS optimizer.
 FormGI is forming the generalized inverse of G from B-inverse, IUseBI=4.
 Internal  Forces:  Max     0.018277748 RMS     0.004169136
 Search for a local minimum.
 Step number   3 out of a maximum of   37
 All quantities printed in internal units (Hartrees-Bohrs-Radians)
 Mixed Optimization -- RFO/linear search
 Update second derivatives using D2CorX and points    2    3
 ITU=  0  1  0
 Use linear search instead of GDIIS.
     Eigenvalues ---    0.00159   0.00230   0.00230   0.00232   0.00685
     Eigenvalues ---    0.01065   0.01229   0.07701   0.08292   0.15943
     Eigenvalues ---    0.16000   0.16000   0.16000   0.16529   0.34341
     Eigenvalues ---    0.34348   0.34461   0.36890   0.54655   0.68071
     Eigenvalues ---    1.29079
 RFO step:  Lambda=-1.27267045D-03 EMin= 1.59329292D-03
 Quartic linear search produced a step of -0.02371.
 Iteration  1 RMS(Cart)=  0.15679845 RMS(Int)=  0.02416200
 Iteration  2 RMS(Cart)=  0.10267084 RMS(Int)=  0.00310351
 Iteration  3 RMS(Cart)=  0.00361337 RMS(Int)=  0.00240835
 Iteration  4 RMS(Cart)=  0.00001026 RMS(Int)=  0.00240835
 Iteration  5 RMS(Cart)=  0.00000024 RMS(Int)=  0.00240835
 Variable       Old X    -DE/DX   Delta X   Delta X   Delta X     New X
                                 (Linear)    (Quad)   (Total)
    R1        2.19810  -0.00623  -0.00009  -0.00335  -0.00305   2.19505
    R2        6.34137   0.00141  -0.01055   0.19986   0.18901   6.53038
    R3        2.75766   0.00301   0.00007   0.00605   0.00650   2.76416
    R4        2.07193  -0.00107  -0.00007  -0.00187  -0.00194   2.07000
    R5        2.07215  -0.00112  -0.00007  -0.00195  -0.00202   2.07013
    R6        2.07208  -0.00179  -0.00007  -0.00367  -0.00374   2.06834
    R7        1.86870  -0.01828  -0.00091  -0.01732  -0.01823   1.85047
    R8        1.84597  -0.00729  -0.00036  -0.00720  -0.00756   1.83841
    A1        1.90801   0.00186   0.00044   0.00976   0.00647   1.91448
    A2        1.90766   0.00192   0.00045   0.01010   0.00688   1.91454
    A3        1.92631   0.00115   0.00008  -0.00098   0.00275   1.92906
    A4        1.89149  -0.00129  -0.00002   0.00113  -0.00238   1.88911
    A5        1.91533  -0.00180  -0.00049  -0.01021  -0.00879   1.90654
    A6        1.91466  -0.00185  -0.00048  -0.00961  -0.00504   1.90962
    A7        2.22969   0.00025   0.00011  -0.00037  -0.00041   2.22928
    A8        2.23856   0.00144  -0.00003   0.00824   0.00806   2.24662
    A9        1.81462  -0.00170  -0.00008  -0.00844  -0.00868   1.80594
   A10        2.47140  -0.00016   0.00776  -0.32136  -0.30926   2.16214
   A11        3.14151  -0.00069   0.00003  -0.01156  -0.01466   3.12684
   A12        3.13701  -0.00004   0.00007  -0.01091  -0.01100   3.12601
   A13        3.13909   0.00059   0.00001   0.00799   0.01039   3.14948
    D1        1.17171   0.00104  -0.00176   0.10756   0.10814   1.27985
    D2       -1.98768   0.00101  -0.00170   0.09965   0.10030  -1.88738
    D3       -1.20468  -0.00096   0.00171  -0.10031  -0.10218  -1.30686
    D4        1.91912  -0.00099   0.00177  -0.10821  -0.11002   1.80910
    D5        3.12497  -0.00005  -0.00002   0.00070   0.00192   3.12688
    D6       -0.03442  -0.00008   0.00004  -0.00720  -0.00593  -0.04034
         Item               Value     Threshold  Converged?
 Maximum Force            0.018278     0.000450     NO 
 RMS     Force            0.004169     0.000300     NO 
 Maximum Displacement     0.656676     0.001800     NO 
 RMS     Displacement     0.250104     0.001200     NO 
 Predicted change in Energy=-7.747472D-04
 GradGradGradGradGradGradGradGradGradGradGradGradGradGradGradGradGradGrad

                          Input orientation:                          
 ---------------------------------------------------------------------
 Center     Atomic      Atomic             Coordinates (Angstroms)
 Number     Number       Type             X           Y           Z
 ---------------------------------------------------------------------
      1          7           0        1.095849   -0.956882   -0.464868
      2          6           0       -1.247619    0.106408    0.049078
      3          6           0        0.061634   -0.477677   -0.241238
      4          1           0       -1.790874   -0.535750    0.750787
      5          1           0       -1.833009    0.177652   -0.874117
      6          1           0       -1.134666    1.103521    0.486086
      7          8           0        4.117098    0.552727    0.266706
      8          1           0        5.016731    0.194480    0.121102
      9          1           0        4.282455    1.445220    0.616764
 ---------------------------------------------------------------------
                    Distance matrix (angstroms):
                    1          2          3          4          5
     1  N    0.000000
     2  C    2.624227   0.000000
     3  C    1.161571   1.462731   0.000000
     4  H    3.160433   1.095395   2.102206   0.000000
     5  H    3.167469   1.095466   2.102299   1.775115   0.000000
     6  H    3.181944   1.094517   2.111947   1.785465   1.787475
     7  O    3.455730   5.387649   4.215037   6.026878   6.070085
     8  H    4.128233   6.265383   5.013589   6.875552   6.921682
     9  H    4.134547   5.718077   4.716888   6.389642   6.420931
                    6          7          8          9
     6  H    0.000000
     7  O    5.285123   0.000000
     8  H    6.228904   0.979224   0.000000
     9  H    5.429460   0.972845   1.532708   0.000000
 Symmetry turned off by external request.
 Stoichiometry    C2H5NO
 Framework group  C1[X(C2H5NO)]
 Deg. of freedom    21
 Full point group                 C1      NOp   1
 Rotational constants (GHZ):          20.7657188           1.8101958           1.6827225
 Standard basis: 6-31G(d) (6D, 7F)
    70 basis functions,   132 primitive gaussians,    70 cartesian basis functions
    16 alpha electrons       16 beta electrons
       nuclear repulsion energy        93.4448547752 Hartrees.
 NAtoms=    9 NActive=    9 NUniq=    9 SFac= 1.00D+00 NAtFMM=   60 NAOKFM=F Big=F
 Integral buffers will be    131072 words long.
 Raffenetti 2 integral format.
 Two-electron integral symmetry is turned off.
 One-electron integrals computed using PRISM.
 NBasis=    70 RedAO= T EigKep=  1.54D-03  NBF=    70
 NBsUse=    70 1.00D-06 EigRej= -1.00D+00 NBFU=    70
 Initial guess from the checkpoint file:  "Acetonitrile-Water_1.chk"
 B after Tr=    -0.036231   -0.169655   -0.090886
         Rot=    0.999974   -0.005791    0.002184   -0.003770 Ang=  -0.83 deg.
 ExpMin= 1.61D-01 ExpMax= 5.48D+03 ExpMxC= 8.25D+02 IAcc=3 IRadAn=         5 AccDes= 0.00D+00
 Harris functional with IExCor=  402 and IRadAn=       5 diagonalized for initial guess.
 HarFok:  IExCor=  402 AccDes= 0.00D+00 IRadAn=         5 IDoV= 1 UseB2=F ITyADJ=14
 ICtDFT=  3500011 ScaDFX=  1.000000  1.000000  1.000000  1.000000
 FoFCou: FMM=F IPFlag=           0 FMFlag=      100000 FMFlg1=           0
         NFxFlg=           0 DoJE=T BraDBF=F KetDBF=T FulRan=T
         wScrn=  0.000000 ICntrl=       500 IOpCl=  0 I1Cent=   200000004 NGrid=           0
         NMat0=    1 NMatS0=      1 NMatT0=    0 NMatD0=    1 NMtDS0=    0 NMtDT0=    0
 Symmetry not used in FoFCou.
 Keep R1 ints in memory in canonical form, NReq=10237397.
 Requested convergence on RMS density matrix=1.00D-08 within 128 cycles.
 Requested convergence on MAX density matrix=1.00D-06.
 Requested convergence on             energy=1.00D-06.
 No special actions if energy rises.
 Integral accuracy reduced to 1.0D-05 until final iterations.
 Initial convergence to 1.0D-05 achieved.  Increase integral accuracy.
 SCF Done:  E(RB3LYP) =  -209.160736751     A.U. after   14 cycles
            NFock= 14  Conv=0.30D-08     -V/T= 2.0092
 Calling FoFJK, ICntrl=      2127 FMM=F ISym2X=0 I1Cent= 0 IOpClX= 0 NMat=1 NMatS=1 NMatT=0.
 -------------------------------------------------------------------
 Center     Atomic                   Forces (Hartrees/Bohr)
 Number     Number              X              Y              Z
 -------------------------------------------------------------------
      1        7          -0.003517339    0.000745486   -0.000184228
      2        6           0.001069793   -0.002490370   -0.001449516
      3        6           0.003020040   -0.001581567    0.000256383
      4        1          -0.000144412    0.001295256    0.000433407
      5        1          -0.000247760    0.001462754    0.000833926
      6        1          -0.000790581   -0.000215474   -0.000272158
      7        8           0.009707040    0.000751595    0.000413400
      8        1          -0.009046730    0.003310666    0.001293511
      9        1          -0.000050051   -0.003278344   -0.001324725
 -------------------------------------------------------------------
 Cartesian Forces:  Max     0.009707040 RMS     0.002991156

 GradGradGradGradGradGradGradGradGradGradGradGradGradGradGradGradGradGrad
 Berny optimization.
 Using GEDIIS/GDIIS optimizer.
 FormGI is forming the generalized inverse of G from B-inverse, IUseBI=4.
 Internal  Forces:  Max     0.009714899 RMS     0.002151526
 Search for a local minimum.
 Step number   4 out of a maximum of   37
 All quantities printed in internal units (Hartrees-Bohrs-Radians)
 Mixed Optimization -- RFO/linear search
 Update second derivatives using D2CorX and points    3    4
 DE= -1.05D-03 DEPred=-7.75D-04 R= 1.36D+00
 TightC=F SS=  1.41D+00  RLast= 4.21D-01 DXNew= 8.4853D-01 1.2620D+00
 Trust test= 1.36D+00 RLast= 4.21D-01 DXMaxT set to 8.49D-01
 ITU=  1  0  1  0
 Use linear search instead of GDIIS.
     Eigenvalues ---    0.00078   0.00230   0.00230   0.00241   0.00687
     Eigenvalues ---    0.01103   0.01311   0.08075   0.08530   0.15619
     Eigenvalues ---    0.15948   0.16000   0.16015   0.17114   0.34309
     Eigenvalues ---    0.34347   0.34535   0.37638   0.49109   0.54744
     Eigenvalues ---    1.27577
 RFO step:  Lambda=-1.29165080D-03 EMin= 7.84305618D-04
 Quartic linear search produced a step of  2.00000.
 Iteration  1 RMS(Cart)=  0.26597842 RMS(Int)=  0.17332476
 Iteration  2 RMS(Cart)=  0.26853220 RMS(Int)=  0.10064507
 Iteration  3 RMS(Cart)=  0.22567434 RMS(Int)=  0.05580655
 Iteration  4 RMS(Cart)=  0.20718721 RMS(Int)=  0.02643523
 Iteration  5 RMS(Cart)=  0.08164329 RMS(Int)=  0.02207328
 Iteration  6 RMS(Cart)=  0.00125574 RMS(Int)=  0.02205876
 Iteration  7 RMS(Cart)=  0.00011008 RMS(Int)=  0.02205874
 Iteration  8 RMS(Cart)=  0.00000333 RMS(Int)=  0.02205874
 Iteration  9 RMS(Cart)=  0.00000040 RMS(Int)=  0.02205874
 Variable       Old X    -DE/DX   Delta X   Delta X   Delta X     New X
                                 (Linear)    (Quad)   (Total)
    R1        2.19505  -0.00315  -0.00610   0.00052   0.00288   2.19793
    R2        6.53038   0.00088   0.37803   0.15427   0.52629   7.05667
    R3        2.76416   0.00014   0.01300  -0.00925   0.01192   2.77608
    R4        2.07000  -0.00041  -0.00388   0.00142  -0.00237   2.06762
    R5        2.07013  -0.00048  -0.00404   0.00118  -0.00286   2.06727
    R6        2.06834  -0.00039  -0.00748   0.00391  -0.00312   2.06522
    R7        1.85047  -0.00971  -0.03646   0.00537  -0.03109   1.81937
    R8        1.83841  -0.00349  -0.01512   0.00370  -0.01141   1.82700
    A1        1.91448   0.00039   0.01295  -0.00974  -0.04366   1.87083
    A2        1.91454   0.00076   0.01376  -0.00439  -0.02537   1.88916
    A3        1.92906   0.00073   0.00550  -0.00074   0.02811   1.95717
    A4        1.88911  -0.00029  -0.00476   0.00798   0.01132   1.90043
    A5        1.90654  -0.00073  -0.01758   0.00584   0.01290   1.91944
    A6        1.90962  -0.00089  -0.01007   0.00129   0.01552   1.92514
    A7        2.22928  -0.00071  -0.00082  -0.01289  -0.01507   2.21421
    A8        2.24662   0.00087   0.01613   0.00472   0.01948   2.26610
    A9        1.80594  -0.00014  -0.01736   0.01170  -0.00702   1.79891
   A10        2.16214  -0.00025  -0.61853  -0.31024  -0.87909   1.28305
   A11        3.12684   0.00053  -0.02933   0.17583   0.09640   3.22325
   A12        3.12601  -0.00015  -0.02200  -0.09196  -0.12389   3.00212
   A13        3.14948   0.00024   0.02078  -0.02714   0.00833   3.15781
    D1        1.27985   0.00081   0.21629   0.16427   0.40748   1.68733
    D2       -1.88738   0.00077   0.20060   0.14176   0.36933  -1.51805
    D3       -1.30686  -0.00085  -0.20436  -0.16216  -0.38831  -1.69517
    D4        1.80910  -0.00089  -0.22005  -0.18467  -0.42647   1.38263
    D5        3.12688   0.00007   0.00383   0.00960   0.00828   3.13516
    D6       -0.04034   0.00002  -0.01186  -0.01292  -0.02988  -0.07022
         Item               Value     Threshold  Converged?
 Maximum Force            0.009715     0.000450     NO 
 RMS     Force            0.002152     0.000300     NO 
 Maximum Displacement     2.379937     0.001800     NO 
 RMS     Displacement     0.993166     0.001200     NO 
 Predicted change in Energy=-1.224441D-03
 GradGradGradGradGradGradGradGradGradGradGradGradGradGradGradGradGradGrad

                          Input orientation:                          
 ---------------------------------------------------------------------
 Center     Atomic      Atomic             Coordinates (Angstroms)
 Number     Number       Type             X           Y           Z
 ---------------------------------------------------------------------
      1          7           0        0.702329   -1.862230   -0.838448
      2          6           0       -0.574017    0.236776    0.100577
      3          6           0        0.117960   -0.964813   -0.384637
      4          1           0       -1.215626   -0.072724    0.931053
      5          1           0       -1.202470    0.620248   -0.708577
      6          1           0        0.124743    1.007343    0.435715
      7          8           0        3.257019    0.612808    0.298313
      8          1           0        4.213892    0.511444    0.265973
      9          1           0        3.143770    1.520847    0.610331
 ---------------------------------------------------------------------
                    Distance matrix (angstroms):
                    1          2          3          4          5
     1  N    0.000000
     2  C    2.629953   0.000000
     3  C    1.163095   1.469040   0.000000
     4  H    3.164177   1.094140   2.074925   0.000000
     5  H    3.131744   1.093953   2.088274   1.780103   0.000000
     6  H    3.192420   1.092865   2.135982   1.791226   1.794642
     7  O    3.734231   3.854521   3.578966   4.568902   4.571752
     8  H    4.380086   4.798632   4.402192   5.501205   5.504413
     9  H    4.416424   3.966185   4.040296   4.652597   4.630377
                    6          7          8          9
     6  H    0.000000
     7  O    3.160014   0.000000
     8  H    4.122605   0.962771   0.000000
     9  H    3.067361   0.966806   1.510840   0.000000
 Symmetry turned off by external request.
 Stoichiometry    C2H5NO
 Framework group  C1[X(C2H5NO)]
 Deg. of freedom    21
 Full point group                 C1      NOp   1
 Rotational constants (GHZ):           8.9824787           2.9865709           2.2740834
 Standard basis: 6-31G(d) (6D, 7F)
    70 basis functions,   132 primitive gaussians,    70 cartesian basis functions
    16 alpha electrons       16 beta electrons
       nuclear repulsion energy        97.4917220222 Hartrees.
 NAtoms=    9 NActive=    9 NUniq=    9 SFac= 1.00D+00 NAtFMM=   60 NAOKFM=F Big=F
 Integral buffers will be    131072 words long.
 Raffenetti 2 integral format.
 Two-electron integral symmetry is turned off.
 One-electron integrals computed using PRISM.
 NBasis=    70 RedAO= T EigKep=  1.59D-03  NBF=    70
 NBsUse=    70 1.00D-06 EigRej= -1.00D+00 NBFU=    70
 Initial guess from the checkpoint file:  "Acetonitrile-Water_1.chk"
 B after Tr=    -0.282860   -0.460692   -0.187741
         Rot=    0.999752    0.015485    0.008528   -0.013545 Ang=   2.55 deg.
 ExpMin= 1.61D-01 ExpMax= 5.48D+03 ExpMxC= 8.25D+02 IAcc=3 IRadAn=         5 AccDes= 0.00D+00
 Harris functional with IExCor=  402 and IRadAn=       5 diagonalized for initial guess.
 HarFok:  IExCor=  402 AccDes= 0.00D+00 IRadAn=         5 IDoV= 1 UseB2=F ITyADJ=14
 ICtDFT=  3500011 ScaDFX=  1.000000  1.000000  1.000000  1.000000
 FoFCou: FMM=F IPFlag=           0 FMFlag=      100000 FMFlg1=           0
         NFxFlg=           0 DoJE=T BraDBF=F KetDBF=T FulRan=T
         wScrn=  0.000000 ICntrl=       500 IOpCl=  0 I1Cent=   200000004 NGrid=           0
         NMat0=    1 NMatS0=      1 NMatT0=    0 NMatD0=    1 NMtDS0=    0 NMtDT0=    0
 Symmetry not used in FoFCou.
 Keep R1 ints in memory in canonical form, NReq=10237397.
 Requested convergence on RMS density matrix=1.00D-08 within 128 cycles.
 Requested convergence on MAX density matrix=1.00D-06.
 Requested convergence on             energy=1.00D-06.
 No special actions if energy rises.
 Integral accuracy reduced to 1.0D-05 until final iterations.
 Initial convergence to 1.0D-05 achieved.  Increase integral accuracy.
 SCF Done:  E(RB3LYP) =  -209.162611323     A.U. after   14 cycles
            NFock= 14  Conv=0.65D-08     -V/T= 2.0091
 Calling FoFJK, ICntrl=      2127 FMM=F ISym2X=0 I1Cent= 0 IOpClX= 0 NMat=1 NMatS=1 NMatT=0.
 -------------------------------------------------------------------
 Center     Atomic                   Forces (Hartrees/Bohr)
 Number     Number              X              Y              Z
 -------------------------------------------------------------------
      1        7          -0.006405331    0.002519942    0.004912794
      2        6          -0.003006049   -0.013624561   -0.000658540
      3        6           0.010911368    0.003403638   -0.007005171
      4        1          -0.001783592    0.005305008    0.001765045
      5        1          -0.000531304    0.003030707    0.001341938
      6        1           0.001482979   -0.001897603   -0.000884875
      7        8          -0.006320349    0.001896954    0.000865805
      8        1           0.005795890   -0.002795851   -0.001020706
      9        1          -0.000143610    0.002161767    0.000683710
 -------------------------------------------------------------------
 Cartesian Forces:  Max     0.013624561 RMS     0.004676680

 GradGradGradGradGradGradGradGradGradGradGradGradGradGradGradGradGradGrad
 Berny optimization.
 Using GEDIIS/GDIIS optimizer.
 FormGI is forming the generalized inverse of G from B-inverse, IUseBI=4.
 Internal  Forces:  Max     0.007707620 RMS     0.003254112
 Search for a local minimum.
 Step number   5 out of a maximum of   37
 All quantities printed in internal units (Hartrees-Bohrs-Radians)
 Mixed Optimization -- RFO/linear search
 Update second derivatives using D2CorX and points    4    5
 DE= -1.87D-03 DEPred=-1.22D-03 R= 1.53D+00
 TightC=F SS=  1.41D+00  RLast= 1.31D+00 DXNew= 1.4270D+00 3.9303D+00
 Trust test= 1.53D+00 RLast= 1.31D+00 DXMaxT set to 1.43D+00
 ITU=  1  1  0  1  0
 Use linear search instead of GDIIS.
     Eigenvalues ---   -0.90066   0.00005   0.00230   0.00232   0.00251
     Eigenvalues ---    0.00718   0.01054   0.02098   0.10939   0.14945
     Eigenvalues ---    0.15565   0.15974   0.16070   0.16667   0.27614
     Eigenvalues ---    0.34343   0.34502   0.34734   0.37581   0.54724
     Eigenvalues ---    1.23901
 RFO step:  Lambda=-9.00906574D-01 EMin=-9.00660572D-01
 I=     1 Eig=   -9.01D-01 Dot1=  8.93D-03
 I=     1 Stepn=  6.00D-01 RXN=   6.00D-01 EDone=F
 Mixed    1 eigenvectors in step.  Raw Step.Grad=  8.93D-03.
 RFO eigenvector is Hessian eigenvector with negative curvature.
 Taking step of  6.00D-01 in eigenvector direction(s).  Step.Grad=  1.46D-03.
 Skip linear search -- no minimum in search direction.
 Iteration  1 RMS(Cart)=  0.13379464 RMS(Int)=  0.04203080
 Iteration  2 RMS(Cart)=  0.04019842 RMS(Int)=  0.00596618
 Iteration  3 RMS(Cart)=  0.00097327 RMS(Int)=  0.00534577
 Iteration  4 RMS(Cart)=  0.00001130 RMS(Int)=  0.00534575
 Iteration  5 RMS(Cart)=  0.00000014 RMS(Int)=  0.00534575
 Variable       Old X    -DE/DX   Delta X   Delta X   Delta X     New X
                                 (Linear)    (Quad)   (Total)
    R1        2.19793  -0.00771   0.00000  -0.07332  -0.07250   2.12543
    R2        7.05667  -0.00009   0.00000  -0.03018  -0.03080   7.02588
    R3        2.77608  -0.00260   0.00000  -0.07156  -0.07138   2.70471
    R4        2.06762   0.00090   0.00000   0.03428   0.03445   2.10207
    R5        2.06727   0.00038   0.00000   0.02369   0.02369   2.09096
    R6        2.06522  -0.00075   0.00000  -0.00961  -0.00875   2.05646
    R7        1.81937   0.00609   0.00000   0.38785   0.38785   2.20722
    R8        1.82700   0.00227   0.00000   0.14088   0.14088   1.96787
    A1        1.87083   0.00719   0.00000   0.23030   0.23093   2.10176
    A2        1.88916  -0.00092   0.00000  -0.03354  -0.04391   1.84526
    A3        1.95717  -0.00529   0.00000  -0.19237  -0.18980   1.76737
    A4        1.90043   0.00006   0.00000  -0.00393  -0.00711   1.89332
    A5        1.91944  -0.00098   0.00000  -0.01603  -0.01654   1.90290
    A6        1.92514   0.00022   0.00000   0.02419   0.02540   1.95054
    A7        2.21421  -0.00300   0.00000  -0.05740  -0.06007   2.15414
    A8        2.26610   0.00145   0.00000   0.01025   0.00754   2.27363
    A9        1.79891   0.00122   0.00000   0.03647   0.03382   1.83273
   A10        1.28305  -0.00043   0.00000  -0.01085  -0.00614   1.27691
   A11        3.22325  -0.00632   0.00000  -0.21906  -0.20072   3.02253
   A12        3.00212   0.00217   0.00000   0.08845   0.09887   3.10099
   A13        3.15781   0.00242   0.00000   0.07580   0.08419   3.24200
    D1        1.68733   0.00181   0.00000   0.02661   0.02510   1.71243
    D2       -1.51805   0.00174   0.00000   0.02610   0.02486  -1.49319
    D3       -1.69517  -0.00322   0.00000  -0.07726  -0.08100  -1.77618
    D4        1.38263  -0.00329   0.00000  -0.07776  -0.08125   1.30138
    D5        3.13516   0.00138   0.00000   0.04851   0.05360  -3.09442
    D6       -0.07022   0.00131   0.00000   0.04801   0.05335  -0.01687
         Item               Value     Threshold  Converged?
 Maximum Force            0.007708     0.000450     NO 
 RMS     Force            0.003254     0.000300     NO 
 Maximum Displacement     0.396377     0.001800     NO 
 RMS     Displacement     0.163259     0.001200     NO 
 Predicted change in Energy=-1.692677D-01
 GradGradGradGradGradGradGradGradGradGradGradGradGradGradGradGradGradGrad

                          Input orientation:                          
 ---------------------------------------------------------------------
 Center     Atomic      Atomic             Coordinates (Angstroms)
 Number     Number       Type             X           Y           Z
 ---------------------------------------------------------------------
      1          7           0        0.690141   -1.760614   -0.856802
      2          6           0       -0.660560    0.175664    0.109106
      3          6           0        0.145654   -0.856387   -0.468320
      4          1           0       -1.247189   -0.018912    1.033967
      5          1           0       -1.358576    0.492683   -0.688761
      6          1           0        0.087369    0.938255    0.317210
      7          8           0        3.278071    0.616487    0.357715
      8          1           0        4.423646    0.390554    0.328364
      9          1           0        3.209045    1.631970    0.577821
 ---------------------------------------------------------------------
                    Distance matrix (angstroms):
                    1          2          3          4          5
     1  N    0.000000
     2  C    2.550793   0.000000
     3  C    1.124728   1.431268   0.000000
     4  H    3.218972   1.112368   2.213197   0.000000
     5  H    3.050054   1.106490   2.032558   1.800536   0.000000
     6  H    3.004253   1.088233   1.959896   1.791914   1.816939
     7  O    3.717935   3.971013   3.558613   4.619418   4.754885
     8  H    4.468916   5.093467   4.526675   5.729216   5.871888
     9  H    4.462360   4.161053   4.082977   4.774045   4.874974
                    6          7          8          9
     6  H    0.000000
     7  O    3.207141   0.000000
     8  H    4.370744   1.168011   0.000000
     9  H    3.208430   1.041354   1.754594   0.000000
 Symmetry turned off by external request.
 Stoichiometry    C2H5NO
 Framework group  C1[X(C2H5NO)]
 Deg. of freedom    21
 Full point group                 C1      NOp   1
 Rotational constants (GHZ):           9.5490033           2.8848466           2.2489964
 Standard basis: 6-31G(d) (6D, 7F)
    70 basis functions,   132 primitive gaussians,    70 cartesian basis functions
    16 alpha electrons       16 beta electrons
       nuclear repulsion energy        97.3561240794 Hartrees.
 NAtoms=    9 NActive=    9 NUniq=    9 SFac= 1.00D+00 NAtFMM=   60 NAOKFM=F Big=F
 Integral buffers will be    131072 words long.
 Raffenetti 2 integral format.
 Two-electron integral symmetry is turned off.
 One-electron integrals computed using PRISM.
 NBasis=    70 RedAO= T EigKep=  1.49D-03  NBF=    70
 NBsUse=    70 1.00D-06 EigRej= -1.00D+00 NBFU=    70
 Initial guess from the checkpoint file:  "Acetonitrile-Water_1.chk"
 B after Tr=    -0.014993    0.041467    0.001776
         Rot=    0.999854   -0.016799    0.002949   -0.000681 Ang=  -1.96 deg.
 ExpMin= 1.61D-01 ExpMax= 5.48D+03 ExpMxC= 8.25D+02 IAcc=3 IRadAn=         5 AccDes= 0.00D+00
 Harris functional with IExCor=  402 and IRadAn=       5 diagonalized for initial guess.
 HarFok:  IExCor=  402 AccDes= 0.00D+00 IRadAn=         5 IDoV= 1 UseB2=F ITyADJ=14
 ICtDFT=  3500011 ScaDFX=  1.000000  1.000000  1.000000  1.000000
 FoFCou: FMM=F IPFlag=           0 FMFlag=      100000 FMFlg1=           0
         NFxFlg=           0 DoJE=T BraDBF=F KetDBF=T FulRan=T
         wScrn=  0.000000 ICntrl=       500 IOpCl=  0 I1Cent=   200000004 NGrid=           0
         NMat0=    1 NMatS0=      1 NMatT0=    0 NMatD0=    1 NMtDS0=    0 NMtDT0=    0
 Symmetry not used in FoFCou.
 Keep R1 ints in memory in canonical form, NReq=10237397.
 Requested convergence on RMS density matrix=1.00D-08 within 128 cycles.
 Requested convergence on MAX density matrix=1.00D-06.
 Requested convergence on             energy=1.00D-06.
 No special actions if energy rises.
 Integral accuracy reduced to 1.0D-05 until final iterations.
 Initial convergence to 1.0D-05 achieved.  Increase integral accuracy.
 SCF Done:  E(RB3LYP) =  -209.125051804     A.U. after   14 cycles
            NFock= 14  Conv=0.43D-08     -V/T= 2.0095
 Calling FoFJK, ICntrl=      2127 FMM=F ISym2X=0 I1Cent= 0 IOpClX= 0 NMat=1 NMatS=1 NMatT=0.
 -------------------------------------------------------------------
 Center     Atomic                   Forces (Hartrees/Bohr)
 Number     Number              X              Y              Z
 -------------------------------------------------------------------
      1        7           0.051672683   -0.073875776   -0.038623850
      2        6          -0.006865683    0.022172196   -0.005763048
      3        6          -0.050787209    0.036820221    0.041866105
      4        1           0.011212162   -0.009193078   -0.010758504
      5        1           0.003144562    0.006945024    0.008992100
      6        1          -0.007472633    0.015893705    0.003865066
      7        8           0.083665113    0.025684874    0.007470460
      8        1          -0.097886576    0.026200324    0.003823036
      9        1           0.013317582   -0.050647490   -0.010871364
 -------------------------------------------------------------------
 Cartesian Forces:  Max     0.097886576 RMS     0.037281001

 GradGradGradGradGradGradGradGradGradGradGradGradGradGradGradGradGradGrad
 Berny optimization.
 Using GEDIIS/GDIIS optimizer.
 FormGI is forming the generalized inverse of G from B-inverse, IUseBI=4.
 Internal  Forces:  Max     0.101170430 RMS     0.030688953
 Search for a local minimum.
 Step number   6 out of a maximum of   37
 All quantities printed in internal units (Hartrees-Bohrs-Radians)
 Mixed Optimization -- RFO/linear search
 Update second derivatives using D2CorX and points    6    5
 ITU=  0  1  1  0  1  0
 Use linear search instead of GDIIS.
     Eigenvalues ---    0.00006   0.00230   0.00232   0.00349   0.00711
     Eigenvalues ---    0.00997   0.01953   0.09635   0.14862   0.15503
     Eigenvalues ---    0.15973   0.16020   0.16515   0.19077   0.33657
     Eigenvalues ---    0.34402   0.34607   0.34818   0.38159   0.55274
     Eigenvalues ---    1.35152
 RFO step:  Lambda=-2.93220446D-03 EMin= 6.30338624D-05
 Quartic linear search produced a step of -0.92231.
 Iteration  1 RMS(Cart)=  0.38323543 RMS(Int)=  0.10276754
 Iteration  2 RMS(Cart)=  0.36847521 RMS(Int)=  0.03189539
 Iteration  3 RMS(Cart)=  0.16562953 RMS(Int)=  0.00654586
 Iteration  4 RMS(Cart)=  0.00672982 RMS(Int)=  0.00469230
 Iteration  5 RMS(Cart)=  0.00036357 RMS(Int)=  0.00469146
 Iteration  6 RMS(Cart)=  0.00000923 RMS(Int)=  0.00469146
 Iteration  7 RMS(Cart)=  0.00000050 RMS(Int)=  0.00469146
 Variable       Old X    -DE/DX   Delta X   Delta X   Delta X     New X
                                 (Linear)    (Quad)   (Total)
    R1        2.12543   0.09551   0.06687  -0.00651   0.06099   2.18642
    R2        7.02588   0.00076   0.02840   0.30997   0.33803   7.36391
    R3        2.70471   0.02404   0.06583   0.00037   0.06633   2.77103
    R4        2.10207  -0.01345  -0.03177   0.00037  -0.03143   2.07064
    R5        2.09096  -0.00648  -0.02185  -0.00094  -0.02279   2.06817
    R6        2.05646   0.00644   0.00807  -0.00316   0.00534   2.06181
    R7        2.20722  -0.10117  -0.35772   0.00758  -0.35014   1.85708
    R8        1.96787  -0.05257  -0.12993   0.00072  -0.12921   1.83866
    A1        2.10176  -0.02527  -0.21299  -0.00218  -0.22061   1.88115
    A2        1.84526   0.01866   0.04050  -0.01855   0.02097   1.86623
    A3        1.76737   0.02527   0.17506   0.00128   0.17491   1.94228
    A4        1.89332  -0.00158   0.00656   0.01277   0.02340   1.91672
    A5        1.90290  -0.00406   0.01525  -0.00035   0.01676   1.91966
    A6        1.95054  -0.01258  -0.02343   0.00679  -0.01422   1.93632
    A7        2.15414   0.00462   0.05541  -0.03126   0.02374   2.17787
    A8        2.27363   0.00900  -0.00695   0.02647   0.01910   2.29273
    A9        1.83273  -0.01058  -0.03119  -0.00162  -0.03323   1.79951
   A10        1.27691  -0.01078   0.00566  -0.57150  -0.56220   0.71472
   A11        3.02253   0.01484   0.18513   0.05588   0.22339   3.24592
   A12        3.10099  -0.00376  -0.09119  -0.04979  -0.15288   2.94811
   A13        3.24200  -0.00883  -0.07765   0.00189  -0.08031   3.16170
    D1        1.71243  -0.00071  -0.02315   0.28808   0.26895   1.98138
    D2       -1.49319  -0.00157  -0.02292   0.25300   0.23412  -1.25907
    D3       -1.77618   0.00256   0.07471  -0.33006  -0.25731  -2.03349
    D4        1.30138   0.00170   0.07494  -0.36514  -0.29214   1.00924
    D5       -3.09442  -0.00142  -0.04943   0.05889   0.00739  -3.08704
    D6       -0.01687  -0.00227  -0.04921   0.02381  -0.02743  -0.04430
         Item               Value     Threshold  Converged?
 Maximum Force            0.101170     0.000450     NO 
 RMS     Force            0.030689     0.000300     NO 
 Maximum Displacement     1.818264     0.001800     NO 
 RMS     Displacement     0.887759     0.001200     NO 
 Predicted change in Energy=-2.041390D-03
 GradGradGradGradGradGradGradGradGradGradGradGradGradGradGradGradGradGrad

                          Input orientation:                          
 ---------------------------------------------------------------------
 Center     Atomic      Atomic             Coordinates (Angstroms)
 Number     Number       Type             X           Y           Z
 ---------------------------------------------------------------------
      1          7           0        0.181724   -2.135072   -1.011110
      2          6           0        0.041251    0.228874    0.109390
      3          6           0        0.090012   -1.120335   -0.462879
      4          1           0       -0.503050    0.170293    1.058571
      5          1           0       -0.511875    0.855039   -0.597535
      6          1           0        1.044158    0.623902    0.278334
      7          8           0        2.479304    0.699895    0.356087
      8          1           0        3.461462    0.668731    0.368059
      9          1           0        2.284613    1.618374    0.611383
 ---------------------------------------------------------------------
                    Distance matrix (angstroms):
                    1          2          3          4          5
     1  N    0.000000
     2  C    2.619827   0.000000
     3  C    1.157004   1.466368   0.000000
     4  H    3.172885   1.095736   2.081406   0.000000
     5  H    3.097239   1.094429   2.069422   1.792105   0.000000
     6  H    3.165185   1.091060   2.121828   1.791196   1.800503
     7  O    3.896811   2.495361   3.113304   3.109404   3.143345
     8  H    4.529912   3.458068   3.906135   4.054948   4.093226
     9  H    4.598150   2.686147   3.670265   3.173008   3.140782
                    6          7          8          9
     6  H    0.000000
     7  O    1.439258   0.000000
     8  H    2.419384   0.982725   0.000000
     9  H    1.624385   0.972977   1.531666   0.000000
 Symmetry turned off by external request.
 Stoichiometry    C2H5NO
 Framework group  C1[X(C2H5NO)]
 Deg. of freedom    21
 Full point group                 C1      NOp   1
 Rotational constants (GHZ):          14.9767476           3.5128242           2.9000327
 Standard basis: 6-31G(d) (6D, 7F)
    70 basis functions,   132 primitive gaussians,    70 cartesian basis functions
    16 alpha electrons       16 beta electrons
       nuclear repulsion energy       105.5052717512 Hartrees.
 NAtoms=    9 NActive=    9 NUniq=    9 SFac= 1.00D+00 NAtFMM=   60 NAOKFM=F Big=F
 Integral buffers will be    131072 words long.
 Raffenetti 2 integral format.
 Two-electron integral symmetry is turned off.
 One-electron integrals computed using PRISM.
 NBasis=    70 RedAO= T EigKep=  1.57D-03  NBF=    70
 NBsUse=    70 1.00D-06 EigRej= -1.00D+00 NBFU=    70
 Lowest energy guess from the checkpoint file:  "Acetonitrile-Water_1.chk"
 B after Tr=    -0.339468   -0.135287   -0.058400
         Rot=    0.999950   -0.007834    0.002194   -0.005833 Ang=  -1.15 deg.
 B after Tr=    -0.326930   -0.185237   -0.067680
         Rot=    0.999911    0.010972    0.000989   -0.007531 Ang=   1.53 deg.
 Keep R1 ints in memory in canonical form, NReq=10237397.
 Requested convergence on RMS density matrix=1.00D-08 within 128 cycles.
 Requested convergence on MAX density matrix=1.00D-06.
 Requested convergence on             energy=1.00D-06.
 No special actions if energy rises.
 Integral accuracy reduced to 1.0D-05 until final iterations.
 Initial convergence to 1.0D-05 achieved.  Increase integral accuracy.
 SCF Done:  E(RB3LYP) =  -209.134608751     A.U. after   13 cycles
            NFock= 13  Conv=0.44D-08     -V/T= 2.0080
 Calling FoFJK, ICntrl=      2127 FMM=F ISym2X=0 I1Cent= 0 IOpClX= 0 NMat=1 NMatS=1 NMatT=0.
 -------------------------------------------------------------------
 Center     Atomic                   Forces (Hartrees/Bohr)
 Number     Number              X              Y              Z
 -------------------------------------------------------------------
      1        7          -0.001249233   -0.011754545   -0.001809479
      2        6          -0.031089692   -0.009711551   -0.000087460
      3        6           0.008456987    0.016148525   -0.000092471
      4        1          -0.002687548    0.004041874   -0.000142251
      5        1          -0.002967207    0.002917304    0.002260950
      6        1          -0.036466895   -0.017654425   -0.007564242
      7        8           0.063981810    0.016992328    0.007534147
      8        1          -0.005357650   -0.002868167   -0.000916401
      9        1           0.007379429    0.001888657    0.000817208
 -------------------------------------------------------------------
 Cartesian Forces:  Max     0.063981810 RMS     0.017014779

 GradGradGradGradGradGradGradGradGradGradGradGradGradGradGradGradGradGrad
 Berny optimization.
 Using GEDIIS/GDIIS optimizer.
 FormGI is forming the generalized inverse of G from B-inverse, IUseBI=4.
 Internal  Forces:  Max     0.231475307 RMS     0.059045185
 Search for a local minimum.
 Step number   7 out of a maximum of   37
 All quantities printed in internal units (Hartrees-Bohrs-Radians)
 Mixed Optimization -- RFO/linear search
 Update second derivatives using D2CorX and points    6    7    5
 DE=  2.80D-02 DEPred=-2.04D-03 R=-1.37D+01
 Trust test=-1.37D+01 RLast= 9.15D-01 DXMaxT set to 7.14D-01
 ITU= -1  0  1  1  0  1  0
 Use linear search instead of GDIIS.
 Energy rises -- skip Quadratic/GDIIS search.
 Quartic linear search produced a step of -0.48930.
 Iteration  1 RMS(Cart)=  0.31384446 RMS(Int)=  0.02632728
 Iteration  2 RMS(Cart)=  0.10351378 RMS(Int)=  0.00271029
 Iteration  3 RMS(Cart)=  0.00221391 RMS(Int)=  0.00210211
 Iteration  4 RMS(Cart)=  0.00001800 RMS(Int)=  0.00210210
 Iteration  5 RMS(Cart)=  0.00000011 RMS(Int)=  0.00210210
 Variable       Old X    -DE/DX   Delta X   Delta X   Delta X     New X
                                 (Linear)    (Quad)   (Total)
    R1        2.18642  -0.01976   0.00563   0.00000   0.00545   2.19187
    R2        7.36391   0.06562  -0.15033   0.00000  -0.15019   7.21371
    R3        2.77103  -0.03706   0.00247   0.00000   0.00213   2.77317
    R4        2.07064   0.00125  -0.00148   0.00000  -0.00149   2.06915
    R5        2.06817   0.00171  -0.00044   0.00000  -0.00044   2.06773
    R6        2.06181  -0.04124   0.00167   0.00000   0.00186   2.06366
    R7        1.85708  -0.00527  -0.01845   0.00000  -0.01845   1.83863
    R8        1.83866   0.00052  -0.00571   0.00000  -0.00571   1.83295
    A1        1.88115   0.07223  -0.00505   0.00000  -0.00663   1.87452
    A2        1.86623   0.07328   0.01122   0.00000   0.01385   1.88007
    A3        1.94228  -0.02673   0.00729   0.00000   0.00649   1.94877
    A4        1.91672  -0.06967  -0.00797   0.00000  -0.00828   1.90844
    A5        1.91966  -0.02816  -0.00011   0.00000   0.00021   1.91987
    A6        1.93632  -0.01710  -0.00547   0.00000  -0.00564   1.93068
    A7        2.17787  -0.00773   0.01778   0.00000   0.01810   2.19597
    A8        2.29273   0.01229  -0.01303   0.00000  -0.01271   2.28002
    A9        1.79951  -0.00190  -0.00029   0.00000   0.00003   1.79953
   A10        0.71472   0.23148   0.27809   0.00000   0.27721   0.99193
   A11        3.24592  -0.05475  -0.01109   0.00000  -0.01866   3.22726
   A12        2.94811   0.01294   0.02643   0.00000   0.02100   2.96911
   A13        3.16170   0.03278  -0.00190   0.00000  -0.00504   3.15666
    D1        1.98138  -0.05366  -0.14388   0.00000  -0.14316   1.83822
    D2       -1.25907  -0.05419  -0.12672   0.00000  -0.12602  -1.38509
    D3       -2.03349   0.05140   0.16554   0.00000   0.16674  -1.86675
    D4        1.00924   0.05087   0.18270   0.00000   0.18388   1.19312
    D5       -3.08704   0.00198  -0.02984   0.00000  -0.03175  -3.11879
    D6       -0.04430   0.00145  -0.01268   0.00000  -0.01461  -0.05891
         Item               Value     Threshold  Converged?
 Maximum Force            0.231475     0.000450     NO 
 RMS     Force            0.059045     0.000300     NO 
 Maximum Displacement     0.841352     0.001800     NO 
 RMS     Displacement     0.408617     0.001200     NO 
 Predicted change in Energy=-3.819971D-02
 GradGradGradGradGradGradGradGradGradGradGradGradGradGradGradGradGradGrad

                          Input orientation:                          
 ---------------------------------------------------------------------
 Center     Atomic      Atomic             Coordinates (Angstroms)
 Number     Number       Type             X           Y           Z
 ---------------------------------------------------------------------
      1          7           0        0.464473   -2.036550   -0.946162
      2          6           0       -0.272986    0.250825    0.109617
      3          6           0        0.115813   -1.054184   -0.437499
      4          1           0       -0.872145    0.064376    1.006919
      5          1           0       -0.890031    0.755686   -0.639807
      6          1           0        0.598934    0.857889    0.362183
      7          8           0        2.872002    0.639352    0.324814
      8          1           0        3.843198    0.581198    0.317788
      9          1           0        2.708342    1.551109    0.612448
 ---------------------------------------------------------------------
                    Distance matrix (angstroms):
                    1          2          3          4          5
     1  N    0.000000
     2  C    2.624995   0.000000
     3  C    1.159890   1.467497   0.000000
     4  H    3.164643   1.094946   2.076916   0.000000
     5  H    3.118512   1.094196   2.080452   1.786040   0.000000
     6  H    3.179248   1.092044   2.128125   1.791486   1.797622
     7  O    3.817332   3.176194   3.323516   3.848961   3.885475
     8  H    4.457124   4.134665   4.139846   4.793378   4.832276
     9  H    4.509490   3.291184   3.822452   3.896905   3.892187
                    6          7          8          9
     6  H    0.000000
     7  O    2.283855   0.000000
     8  H    3.256345   0.972962   0.000000
     9  H    2.234455   0.969958   1.521660   0.000000
 Symmetry turned off by external request.
 Stoichiometry    C2H5NO
 Framework group  C1[X(C2H5NO)]
 Deg. of freedom    21
 Full point group                 C1      NOp   1
 Rotational constants (GHZ):           9.9401741           3.4195490           2.5870444
 Standard basis: 6-31G(d) (6D, 7F)
    70 basis functions,   132 primitive gaussians,    70 cartesian basis functions
    16 alpha electrons       16 beta electrons
       nuclear repulsion energy       100.6583062151 Hartrees.
 NAtoms=    9 NActive=    9 NUniq=    9 SFac= 1.00D+00 NAtFMM=   60 NAOKFM=F Big=F
 Integral buffers will be    131072 words long.
 Raffenetti 2 integral format.
 Two-electron integral symmetry is turned off.
 One-electron integrals computed using PRISM.
 NBasis=    70 RedAO= T EigKep=  1.59D-03  NBF=    70
 NBsUse=    70 1.00D-06 EigRej= -1.00D+00 NBFU=    70
 Lowest energy guess from the checkpoint file:  "Acetonitrile-Water_1.chk"
 B after Tr=    -0.157692   -0.082018   -0.041290
         Rot=    0.999985   -0.004956    0.001604   -0.001741 Ang=  -0.63 deg.
 B after Tr=     0.179952    0.043993    0.014223
         Rot=    0.999994    0.002632    0.000017    0.002042 Ang=   0.38 deg.
 Keep R1 ints in memory in canonical form, NReq=10237397.
 Requested convergence on RMS density matrix=1.00D-08 within 128 cycles.
 Requested convergence on MAX density matrix=1.00D-06.
 Requested convergence on             energy=1.00D-06.
 No special actions if energy rises.
 Integral accuracy reduced to 1.0D-05 until final iterations.
 Initial convergence to 1.0D-05 achieved.  Increase integral accuracy.
 SCF Done:  E(RB3LYP) =  -209.163750929     A.U. after   12 cycles
            NFock= 12  Conv=0.43D-08     -V/T= 2.0091
 Calling FoFJK, ICntrl=      2127 FMM=F ISym2X=0 I1Cent= 0 IOpClX= 0 NMat=1 NMatS=1 NMatT=0.
 -------------------------------------------------------------------
 Center     Atomic                   Forces (Hartrees/Bohr)
 Number     Number              X              Y              Z
 -------------------------------------------------------------------
      1        7          -0.002589172   -0.003284343    0.002067447
      2        6          -0.006588233   -0.011452557    0.000096957
      3        6           0.008841683    0.007801446   -0.004251914
      4        1          -0.000966928    0.005345414    0.000919741
      5        1          -0.000516027    0.003374687    0.002147352
      6        1          -0.000516594   -0.003970309   -0.001833126
      7        8           0.004288220    0.004275256    0.001705294
      8        1          -0.003733703   -0.002066656   -0.000790900
[...]
   A12        3.15174   0.00005   0.00670   0.00000   0.00002   3.15176
   A13        3.12010   0.00168   0.01677   0.00000   0.00005   3.12016
    D1        2.19715  -0.00013  -0.12346   0.00000  -0.00037   2.19677
    D2       -1.49965  -0.00044   0.12659   0.00000   0.00038  -1.49927
    D3       -2.02036   0.00012  -0.13034   0.00000  -0.00039  -2.02076
    D4        0.56603  -0.00019   0.11972   0.00000   0.00036   0.56639
    D5       -1.29971   0.00016  -0.94526   0.00000  -0.74618  -2.04589
    D6        1.28668  -0.00016  -0.69520   0.00000  -0.74543   0.54125
         Item               Value     Threshold  Converged?
 Maximum Force            0.045268     0.000450     NO 
 RMS     Force            0.009424     0.000300     NO 
 Maximum Displacement     0.000337     0.001800     YES
 RMS     Displacement     0.000136     0.001200     YES
 Predicted change in Energy=-9.751644D-04
 GradGradGradGradGradGradGradGradGradGradGradGradGradGradGradGradGradGrad

                          Input orientation:                          
 ---------------------------------------------------------------------
 Center     Atomic      Atomic             Coordinates (Angstroms)
 Number     Number       Type             X           Y           Z
 ---------------------------------------------------------------------
      1          7           0       -0.196881   -2.302787   -1.066193
      2          6           0       -0.163918    0.095780    0.054185
      3          6           0       -0.187727   -1.231618   -0.570396
      4          1           0       -0.698253    0.064446    1.011777
      5          1           0       -0.653707    0.829297   -0.596132
      6          1           0        0.872865    0.411562    0.240116
      7          8           0        2.871076    1.020176    0.598465
      8          1           0        3.796430    0.728536    0.428235
      9          1           0        2.927716    1.994308    0.610242
 ---------------------------------------------------------------------
                    Distance matrix (angstroms):
                    1          2          3          4          5
     1  N    0.000000
     2  C    2.647537   0.000000
     3  C    1.180381   1.467192   0.000000
     4  H    3.189534   1.097032   2.108006   0.000000
     5  H    3.199937   1.095834   2.113095   1.781110   0.000000
     6  H    3.196637   1.099639   2.117032   1.784478   1.790037
     7  O    4.819286   3.218996   3.974052   3.718111   3.726606
     8  H    5.231516   4.027983   4.551151   4.580797   4.567625
     9  H    5.571226   3.670396   4.637509   4.127135   3.954640
                    6          7          8          9
     6  H    0.000000
     7  O    2.119356   0.000000
     8  H    2.946709   0.985044   0.000000
     9  H    2.620017   0.975849   1.545953   0.000000
 Symmetry turned off by external request.
 Stoichiometry    C2H5NO
 Framework group  C1[X(C2H5NO)]
 Deg. of freedom    21
 Full point group                 C1      NOp   1
 Rotational constants (GHZ):          15.1295984           2.2843290           2.0123648
 Standard basis: 6-31G(d) (6D, 7F)
    70 basis functions,   132 primitive gaussians,    70 cartesian basis functions
    16 alpha electrons       16 beta electrons
       nuclear repulsion energy        96.7278050021 Hartrees.
 NAtoms=    9 NActive=    9 NUniq=    9 SFac= 1.00D+00 NAtFMM=   60 NAOKFM=F Big=F
 Integral buffers will be    131072 words long.
 Raffenetti 2 integral format.
 Two-electron integral symmetry is turned off.
 One-electron integrals computed using PRISM.
 NBasis=    70 RedAO= T EigKep=  1.59D-03  NBF=    70
 NBsUse=    70 1.00D-06 EigRej= -1.00D+00 NBFU=    70
 Lowest energy guess from the checkpoint file:  "Acetonitrile-Water_1.chk"
 B after Tr=    -0.013398   -0.004326    0.003523
         Rot=    0.999976   -0.001428    0.006834    0.000180 Ang=  -0.80 deg.
 B after Tr=     0.000028    0.000006   -0.000006
         Rot=    1.000000    0.000001   -0.000019   -0.000001 Ang=   0.00 deg.
 Keep R1 ints in memory in canonical form, NReq=10237397.
 Requested convergence on RMS density matrix=1.00D-08 within 128 cycles.
 Requested convergence on MAX density matrix=1.00D-06.
 Requested convergence on             energy=1.00D-06.
 No special actions if energy rises.
 SCF Done:  E(RB3LYP) =  -209.167878905     A.U. after   10 cycles
            NFock= 10  Conv=0.40D-08     -V/T= 2.0098
 Calling FoFJK, ICntrl=      2127 FMM=F ISym2X=0 I1Cent= 0 IOpClX= 0 NMat=1 NMatS=1 NMatT=0.
 -------------------------------------------------------------------
 Center     Atomic                   Forces (Hartrees/Bohr)
 Number     Number              X              Y              Z
 -------------------------------------------------------------------
      1        7           0.000146413    0.040169667    0.018322140
      2        6           0.000402145   -0.002771675    0.000286935
      3        6           0.000240043   -0.036259075   -0.016762879
      4        1           0.000073376    0.000167786   -0.001235962
      5        1          -0.000061034   -0.000643770    0.000148785
      6        1          -0.002003843   -0.001717370   -0.001250571
      7        8           0.014900506    0.003613382   -0.001433313
      8        1          -0.014221217    0.003891295    0.002093649
      9        1           0.000523611   -0.006450239   -0.000168785
 -------------------------------------------------------------------
 Cartesian Forces:  Max     0.040169667 RMS     0.012269151

 GradGradGradGradGradGradGradGradGradGradGradGradGradGradGradGradGradGrad
 Berny optimization.
 Using GEDIIS/GDIIS optimizer.
 FormGI is forming the generalized inverse of G from B-inverse, IUseBI=4.
 Internal  Forces:  Max     0.045153538 RMS     0.009400869
 Search for a local minimum.
 Step number  19 out of a maximum of   37
 All quantities printed in internal units (Hartrees-Bohrs-Radians)
 Mixed Optimization -- RFO/linear search
 Update second derivatives using D2CorX and points   19   14
 ITU=  0  0  0  0  0 -1  1  1  1  1 -1  0 -1  0  1  1  0  1  0
 Use linear search instead of GDIIS.
 Energy rises -- skip Quadratic/GDIIS search.
 Quartic linear search produced a step of -0.80117.
 Iteration  1 RMS(Cart)=  0.00290705 RMS(Int)=  0.05959280
 Iteration  2 RMS(Cart)=  0.02876630 RMS(Int)=  0.02092332
 Iteration  3 RMS(Cart)=  0.02379714 RMS(Int)=  0.01474833
 Iteration  4 RMS(Cart)=  0.00885599 RMS(Int)=  0.00907557
 Iteration  5 RMS(Cart)=  0.00623258 RMS(Int)=  0.00683379
 Iteration  6 RMS(Cart)=  0.00034834 RMS(Int)=  0.00694292
 Iteration  7 RMS(Cart)=  0.00006276 RMS(Int)=  0.00692387
 Iteration  8 RMS(Cart)=  0.00322792 RMS(Int)=  0.00640510
 New curvilinear step failed:  FormB failed.
 Iteration  1 RMS(Cart)=  0.00290705 RMS(Int)=  0.05959280
 Iteration  2 RMS(Cart)=  0.02876630 RMS(Int)=  0.02092332
 Iteration  3 RMS(Cart)=  0.02379714 RMS(Int)=  0.01474833
 Iteration  4 RMS(Cart)=  0.00885599 RMS(Int)=  0.00907557
 Iteration  5 RMS(Cart)=  0.00623258 RMS(Int)=  0.00683379
 Iteration  6 RMS(Cart)=  0.00034834 RMS(Int)=  0.00694292
 Iteration  7 RMS(Cart)=  0.00006276 RMS(Int)=  0.00692387
 Iteration  8 RMS(Cart)=  0.00322792 RMS(Int)=  0.00640510
 New curvilinear step failed:  FormB failed.
 ITry= 2 IFail=2 DXMaxC= 1.09D-01 DCOld= 1.00D+10 DXMaxT= 8.49D-01 DXLimC= 3.00D+00 Rises=T
 Iteration  1 RMS(Cart)=  0.00290705 RMS(Int)=  0.05959280
 Iteration  2 RMS(Cart)=  0.02876630 RMS(Int)=  0.02092332
 Iteration  3 RMS(Cart)=  0.02379714 RMS(Int)=  0.01474833
 Iteration  4 RMS(Cart)=  0.00885599 RMS(Int)=  0.00907557
 Iteration  5 RMS(Cart)=  0.00623258 RMS(Int)=  0.00683379
 Iteration  6 RMS(Cart)=  0.00034834 RMS(Int)=  0.00694292
 Iteration  7 RMS(Cart)=  0.00006276 RMS(Int)=  0.00692387
 Iteration  8 RMS(Cart)=  0.00322792 RMS(Int)=  0.00640510
 New curvilinear step failed:  FormB failed.
 ITry= 3 IFail=2 DXMaxC= 1.09D-01 DCOld= 1.00D+10 DXMaxT= 8.49D-01 DXLimC= 3.00D+00 Rises=T
 Iteration  1 RMS(Cart)=  0.00290705 RMS(Int)=  0.05959280
 Iteration  2 RMS(Cart)=  0.02876630 RMS(Int)=  0.02092332
 Iteration  3 RMS(Cart)=  0.02379714 RMS(Int)=  0.01474833
 Iteration  4 RMS(Cart)=  0.00885599 RMS(Int)=  0.00907557
 Iteration  5 RMS(Cart)=  0.00623258 RMS(Int)=  0.00683379
 Iteration  6 RMS(Cart)=  0.00034834 RMS(Int)=  0.00694292
 Iteration  7 RMS(Cart)=  0.00006276 RMS(Int)=  0.00692387
 Iteration  8 RMS(Cart)=  0.00322792 RMS(Int)=  0.00640510
 New curvilinear step failed:  FormB failed.
 ITry= 4 IFail=2 DXMaxC= 1.09D-01 DCOld= 1.00D+10 DXMaxT= 8.49D-01 DXLimC= 3.00D+00 Rises=T
 Iteration  1 RMS(Cart)=  0.00290705 RMS(Int)=  0.05959280
 Iteration  2 RMS(Cart)=  0.02876630 RMS(Int)=  0.02092332
 Iteration  3 RMS(Cart)=  0.02379714 RMS(Int)=  0.01474833
 Iteration  4 RMS(Cart)=  0.00885599 RMS(Int)=  0.00907557
 Iteration  5 RMS(Cart)=  0.00623258 RMS(Int)=  0.00683379
 Iteration  6 RMS(Cart)=  0.00034834 RMS(Int)=  0.00694292
 Iteration  7 RMS(Cart)=  0.00006276 RMS(Int)=  0.00692387
 Iteration  8 RMS(Cart)=  0.00322792 RMS(Int)=  0.00640510
 New curvilinear step failed:  FormB failed.
 ITry= 5 IFail=2 DXMaxC= 1.09D-01 DCOld= 1.00D+10 DXMaxT= 8.49D-01 DXLimC= 3.00D+00 Rises=T
 Iteration  1 RMS(Cart)=  0.00290705 RMS(Int)=  0.05959280
 Iteration  2 RMS(Cart)=  0.02876630 RMS(Int)=  0.02092332
 Iteration  3 RMS(Cart)=  0.02379714 RMS(Int)=  0.01474833
 Iteration  4 RMS(Cart)=  0.00885599 RMS(Int)=  0.00907557
 Iteration  5 RMS(Cart)=  0.00623258 RMS(Int)=  0.00683379
 Iteration  6 RMS(Cart)=  0.00034834 RMS(Int)=  0.00694292
 Iteration  7 RMS(Cart)=  0.00006276 RMS(Int)=  0.00692387
 Iteration  8 RMS(Cart)=  0.00322792 RMS(Int)=  0.00640510
 New curvilinear step failed:  FormB failed.
 ITry= 6 IFail=2 DXMaxC= 1.09D-01 DCOld= 1.00D+10 DXMaxT= 8.49D-01 DXLimC= 3.00D+00 Rises=T
 Iteration  1 RMS(Cart)=  0.00290705 RMS(Int)=  0.05959280
 Iteration  2 RMS(Cart)=  0.02876630 RMS(Int)=  0.02092332
 Iteration  3 RMS(Cart)=  0.02379714 RMS(Int)=  0.01474833
 Iteration  4 RMS(Cart)=  0.00885599 RMS(Int)=  0.00907557
 Iteration  5 RMS(Cart)=  0.00623258 RMS(Int)=  0.00683379
 Iteration  6 RMS(Cart)=  0.00034834 RMS(Int)=  0.00694292
 Iteration  7 RMS(Cart)=  0.00006276 RMS(Int)=  0.00692387
 Iteration  8 RMS(Cart)=  0.00322792 RMS(Int)=  0.00640510
 New curvilinear step failed:  FormB failed.
 ITry= 7 IFail=2 DXMaxC= 1.09D-01 DCOld= 1.00D+10 DXMaxT= 8.49D-01 DXLimC= 3.00D+00 Rises=T
 Iteration  1 RMS(Cart)=  0.00290705 RMS(Int)=  0.05959280
 Iteration  2 RMS(Cart)=  0.02876630 RMS(Int)=  0.02092332
 Iteration  3 RMS(Cart)=  0.02379714 RMS(Int)=  0.01474833
 Iteration  4 RMS(Cart)=  0.00885599 RMS(Int)=  0.00907557
 Iteration  5 RMS(Cart)=  0.00623258 RMS(Int)=  0.00683379
 Iteration  6 RMS(Cart)=  0.00034834 RMS(Int)=  0.00694292
 Iteration  7 RMS(Cart)=  0.00006276 RMS(Int)=  0.00692387
 Iteration  8 RMS(Cart)=  0.00322792 RMS(Int)=  0.00640510
 New curvilinear step failed:  FormB failed.
 ITry= 8 IFail=2 DXMaxC= 1.09D-01 DCOld= 1.00D+10 DXMaxT= 8.49D-01 DXLimC= 3.00D+00 Rises=T
 Iteration  1 RMS(Cart)=  0.00290705 RMS(Int)=  0.05959280
 Iteration  2 RMS(Cart)=  0.02876630 RMS(Int)=  0.02092332
 Iteration  3 RMS(Cart)=  0.02379714 RMS(Int)=  0.01474833
 Iteration  4 RMS(Cart)=  0.00885599 RMS(Int)=  0.00907557
 Iteration  5 RMS(Cart)=  0.00623258 RMS(Int)=  0.00683379
 Iteration  6 RMS(Cart)=  0.00034834 RMS(Int)=  0.00694292
 Iteration  7 RMS(Cart)=  0.00006276 RMS(Int)=  0.00692387
 Iteration  8 RMS(Cart)=  0.00322792 RMS(Int)=  0.00640510
 New curvilinear step failed:  FormB failed.
 ITry= 9 IFail=2 DXMaxC= 1.09D-01 DCOld= 1.00D+10 DXMaxT= 8.49D-01 DXLimC= 3.00D+00 Rises=T
 Iteration  1 RMS(Cart)=  0.00290705 RMS(Int)=  0.05959280
 Iteration  2 RMS(Cart)=  0.02876630 RMS(Int)=  0.02092332
 Iteration  3 RMS(Cart)=  0.02379714 RMS(Int)=  0.01474833
 Iteration  4 RMS(Cart)=  0.00885599 RMS(Int)=  0.00907557
 Iteration  5 RMS(Cart)=  0.00623258 RMS(Int)=  0.00683379
 Iteration  6 RMS(Cart)=  0.00034834 RMS(Int)=  0.00694292
 Iteration  7 RMS(Cart)=  0.00006276 RMS(Int)=  0.00692387
 Iteration  8 RMS(Cart)=  0.00322792 RMS(Int)=  0.00640510
 New curvilinear step failed:  FormB failed.
 ITry=10 IFail=2 DXMaxC= 1.09D-01 DCOld= 1.00D+10 DXMaxT= 8.49D-01 DXLimC= 3.00D+00 Rises=T
 Variable       Old X    -DE/DX   Delta X   Delta X   Delta X     New X
                                 (Linear)    (Quad)   (Total)
    R1        2.23060  -0.04515  -0.03241   0.00000  -0.02632   2.20428
    R2        9.10713   0.00157  -0.01050   0.00000  -0.02095   9.08618
    R3        2.77259  -0.00522  -0.01446   0.00000  -0.00971   2.76289
    R4        2.07309  -0.00113  -0.00439   0.00000  -0.00438   2.06871
    R5        2.07083  -0.00049  -0.00113   0.00000  -0.00089   2.06993
    R6        2.07802  -0.00259  -0.00716   0.00000   0.00025   2.07827
    R7        1.86146  -0.01487  -0.02767   0.00000  -0.02760   1.83386
    R8        1.84409  -0.00641  -0.01092   0.00000  -0.01032   1.83377
    A1        1.91542   0.00094   0.01672   0.00000   0.00943   1.92485
    A2        1.92379  -0.00101   0.00382   0.00000  -0.00142   1.92237
    A3        1.92526  -0.00090  -0.02346   0.00000  -0.00340   1.92186
    A4        1.89593  -0.00039  -0.01396   0.00000  -0.01488   1.88104
    A5        1.89636   0.00127   0.01675   0.00000   0.01280   1.90916
    A6        1.90660   0.00012   0.00045   0.00000  -0.00263   1.90396
    A7        1.91154  -0.00165   0.05830   0.00000   0.06114   1.97268
    A8        2.38827   0.00135   0.03862   0.00000   0.04000   2.42827
    A9        1.81637  -0.00035  -0.00573   0.00000  -0.00385   1.81252
   A10        0.68292   0.00582   0.01274   0.00000  -0.00542   0.67750
   A11        3.14056  -0.00026  -0.00915   0.00000  -0.00935   3.13121
   A12        3.15176   0.00051   0.00667   0.00000   0.00698   3.15874
   A13        3.12016   0.00187   0.01671   0.00000   0.01738   3.13754
    D1        2.19677  -0.00010  -0.12306   0.00000  -0.12002   2.07676
    D2       -1.49927  -0.00039   0.12618   0.00000   0.12897  -1.37030
    D3       -2.02076   0.00008  -0.12991   0.00000  -0.13208  -2.15284
    D4        0.56639  -0.00020   0.11933   0.00000   0.11690   0.68329
    D5       -2.04589   0.00014  -0.34662   0.00000  -0.34646  -2.39235
    D6        0.54125  -0.00014  -0.09739   0.00000  -0.09747   0.44378
         Item               Value     Threshold  Converged?
 Maximum Force            0.045154     0.000450     NO 
 RMS     Force            0.009401     0.000300     NO 
 Maximum Displacement     0.108734     0.001800     NO 
 RMS     Displacement     0.032077     0.001200     NO 
 Predicted change in Energy=-1.053651D-04
 GradGradGradGradGradGradGradGradGradGradGradGradGradGradGradGradGradGrad

                          Input orientation:                          
 ---------------------------------------------------------------------
 Center     Atomic      Atomic             Coordinates (Angstroms)
 Number     Number       Type             X           Y           Z
 ---------------------------------------------------------------------
      1          7           0       -0.214290   -2.295318   -1.054171
      2          6           0       -0.162910    0.088466    0.052085
      3          6           0       -0.189065   -1.234813   -0.569088
      4          1           0       -0.695314    0.069410    1.008425
      5          1           0       -0.662230    0.818459   -0.594139
      6          1           0        0.876266    0.407414    0.219078
      7          8           0        2.879090    1.022127    0.540925
      8          1           0        3.806344    0.749231    0.454469
      9          1           0        2.929709    1.984723    0.652716
 ---------------------------------------------------------------------
                    Distance matrix (angstroms):
                    1          2          3          4          5
     1  N    0.000000
     2  C    2.628473   0.000000
     3  C    1.166453   1.462056   0.000000
     4  H    3.174527   1.094715   2.108514   0.000000
     5  H    3.179291   1.095361   2.107235   1.769288   0.000000
     6  H    3.180446   1.099773   2.110223   1.790860   1.788085
     7  O    4.808199   3.219386   3.967301   3.728617   3.724352
     8  H    5.264103   4.043946   4.576832   4.586278   4.590482
     9  H    5.578257   3.677069   4.645963   4.115306   3.977039
                    6          7          8          9
     6  H    0.000000
     7  O    2.119613   0.000000
     8  H    2.959325   0.970436   0.000000
     9  H    2.625371   0.970387   1.527819   0.000000
 Symmetry turned off by external request.
 Stoichiometry    C2H5NO
 Framework group  C1[X(C2H5NO)]
 Deg. of freedom    21
 Full point group                 C1      NOp   1
 Rotational constants (GHZ):          15.3534635           2.2891241           2.0186175
 Standard basis: 6-31G(d) (6D, 7F)
    70 basis functions,   132 primitive gaussians,    70 cartesian basis functions
    16 alpha electrons       16 beta electrons
       nuclear repulsion energy        97.1921372397 Hartrees.
 NAtoms=    9 NActive=    9 NUniq=    9 SFac= 1.00D+00 NAtFMM=   60 NAOKFM=F Big=F
 Integral buffers will be    131072 words long.
 Raffenetti 2 integral format.
 Two-electron integral symmetry is turned off.
 One-electron integrals computed using PRISM.
 NBasis=    70 RedAO= T EigKep=  1.54D-03  NBF=    70
 NBsUse=    70 1.00D-06 EigRej= -1.00D+00 NBFU=    70
 Lowest energy guess from the checkpoint file:  "Acetonitrile-Water_1.chk"
 B after Tr=    -0.013480   -0.002980   -0.001280
         Rot=    0.999999   -0.000125    0.001414    0.000291 Ang=  -0.17 deg.
 B after Tr=    -0.000100    0.001378   -0.004948
         Rot=    0.999984    0.001300   -0.005423    0.000126 Ang=   0.64 deg.
 Keep R1 ints in memory in canonical form, NReq=10237397.
 Requested convergence on RMS density matrix=1.00D-08 within 128 cycles.
 Requested convergence on MAX density matrix=1.00D-06.
 Requested convergence on             energy=1.00D-06.
 No special actions if energy rises.
 Integral accuracy reduced to 1.0D-05 until final iterations.
 Initial convergence to 1.0D-05 achieved.  Increase integral accuracy.
 SCF Done:  E(RB3LYP) =  -209.168802997     A.U. after   11 cycles
            NFock= 11  Conv=0.59D-08     -V/T= 2.0093
 Calling FoFJK, ICntrl=      2127 FMM=F ISym2X=0 I1Cent= 0 IOpClX= 0 NMat=1 NMatS=1 NMatT=0.
 -------------------------------------------------------------------
 Center     Atomic                   Forces (Hartrees/Bohr)
 Number     Number              X              Y              Z
 -------------------------------------------------------------------
      1        7           0.000655438    0.012317589    0.005149673
      2        6           0.001291060    0.000904662   -0.000885780
      3        6          -0.001329848   -0.011691233   -0.004330444
      4        1           0.000528909   -0.000917047    0.000585388
      5        1           0.000286231   -0.000283190   -0.000777158
      6        1          -0.002676537   -0.001409973   -0.000166428
      7        8           0.003284857    0.003505224    0.000898870
      8        1          -0.001883843   -0.001059210   -0.000331326
      9        1          -0.000156268   -0.001366822   -0.000142794
 -------------------------------------------------------------------
 Cartesian Forces:  Max     0.012317589 RMS     0.003757143

 GradGradGradGradGradGradGradGradGradGradGradGradGradGradGradGradGradGrad
 Berny optimization.
 Using GEDIIS/GDIIS optimizer.
 Tors failed for dihedral     6 -     2 -     7 -     8
 Tors failed for dihedral     6 -     2 -     7 -     9
 FormBX had a problem.
 Error termination via Lnk1e in /opt/software/Gaussian16/bin/avx/g16/l103.exe at Sun Sep 29 22:29:02 2019.
 Job cpu time:       0 days  0 hours  8 minutes 22.8 seconds.
 Elapsed time:       0 days  0 hours  1 minutes 10.3 seconds.
 File lengths (MBytes):  RWF=      6 Int=      0 D2E=      0 Chk=      2 Scr=      1
