 Entering Gaussian System, Link 0=g16
 Initial command:
 /opt/software/Gaussian16/bin/avx/g16/l1.exe "/scratch/Gau-11730.inp" -scrdir="/scratch/"
 Entering Link 1 = /opt/software/Gaussian16/bin/avx/g16/l1.exe PID=     11731.
  
 Copyright (c) 1988-2019, Gaussian, Inc.  All Rights Reserved.
  
 This is part of the Gaussian(R) 16 program.  It is based on
 the Gaussian(R) 09 system (copyright 2009, Gaussian, Inc.),
 the Gaussian(R) 03 system (copyright 2003, Gaussian, Inc.),
 the Gaussian(R) 98 system (copyright 1998, Gaussian, Inc.),
 the Gaussian(R) 94 system (copyright 1995, Gaussian, Inc.),
 the Gaussian 92(TM) system (copyright 1992, Gaussian, Inc.),
 the Gaussian 90(TM) system (copyright 1990, Gaussian, Inc.),
 the Gaussian 88(TM) system (copyright 1988, Gaussian, Inc.),
 the Gaussian 86(TM) system (copyright 1986, Carnegie Mellon
 University), and the Gaussian 82(TM) system (copyright 1983,
 Carnegie Mellon University). Gaussian is a federally registered
 trademark of Gaussian, Inc.
  
 This software contains proprietary and confidential information,
 including trade secrets, belonging to Gaussian, Inc.
  
 This software is provided under written license and may be
 used, copied, transmitted, or stored only in accord with that
 written license.
  
 The following legend is applicable only to US Government
 contracts under FAR:
  
                    RESTRICTED RIGHTS LEGEND
  
 Use, reproduction and disclosure by the US Government is
 subject to restrictions as set forth in subparagraphs (a)
 and (c) of the Commercial Computer Software - Restricted
 Rights clause in FAR 52.227-19.
  
 Gaussian, Inc.
 340 Quinnipiac St., Bldg. 40, Wallingford CT 06492
  
  
 ---------------------------------------------------------------
 Warning -- This program may not be used in any manner that
 competes with the business of Gaussian, Inc. or will provide
 assistance to any competitor of Gaussian, Inc.  The licensee
 of this program is prohibited from giving any competitor of
 Gaussian, Inc. access to this program.  By using this program,
 the user acknowledges that Gaussian, Inc. is engaged in the
 business of creating and licensing software in the field of
 computational chemistry and represents and warrants to the
 licensee that it is not a competitor of Gaussian, Inc. and that
 it will not use this program in any manner prohibited above.
 ---------------------------------------------------------------
  

 Cite this work as:
 Gaussian 16, Revision C.01,
 M. J. Frisch, G. W. Trucks, H. B. Schlegel, G. E. Scuseria, 
 M. A. Robb, J. R. Cheeseman, G. Scalmani, V. Barone, 
 G. A. Petersson, H. Nakatsuji, X. Li, M. Caricato, A. V. Marenich, 
 J. Bloino, B. G. Janesko, R. Gomperts, B. Mennucci, H. P. Hratchian, 
 J. V. Ortiz, A. F. Izmaylov, J. L. Sonnenberg, D. Williams-Young, 
 F. Ding, F. Lipparini, F. Egidi, J. Goings, B. Peng, A. Petrone, 
 T. Henderson, D. Ranasinghe, V. G. Zakrzewski, J. Gao, N. Rega, 
 G. Zheng, W. Liang, M. Hada, M. Ehara, K. Toyota, R. Fukuda, 
 J. Hasegawa, M. Ishida, T. Nakajima, Y. Honda, O. Kitao, H. Nakai, 
 T. Vreven, K. Throssell, J. A. Montgomery, Jr., J. E. Peralta, 
 F. Ogliaro, M. J. Bearpark, J. J. Heyd, E. N. Brothers, K. N. Kudin, 
 V. N. Staroverov, T. A. Keith, R. Kobayashi, J. Normand, 
 K. Raghavachari, A. P. Rendell, J. C. Burant, S. S. Iyengar, 
 J. Tomasi, M. Cossi, J. M. Millam, M. Klene, C. Adamo, R. Cammi, 
 J. W. Ochterski, R. L. Martin, K. Morokuma, O. Farkas, 
 J. B. Foresman, and D. J. Fox, Gaussian, Inc., Wallingford CT, 2019.
 
 ******************************************
 Gaussian 16:  ES64L-G16RevC.01  3-Jul-2019
                30-Sep-2019 
 ******************************************
 %chk=Trimethylammonium-Acetate_1.chk
 %nproc=8
 Will use up to    8 processors via shared memory.
 %mem=20GB
 ----------------------------------------------
 # opt(ModRedundant) freq b3lyp/6-31g(d) nosymm
 ----------------------------------------------
 1/18=120,19=15,26=3,38=1/1,3;
 2/9=110,12=2,15=1,17=6,18=5,40=1/2;
 3/5=1,6=6,7=1,11=2,25=1,30=1,71=1,74=-5/1,2,3;
 4//1;
 5/5=2,38=5/2;
 6/7=2,8=2,9=2,10=2,28=1/1;
 7/30=1/1,2,3,16;
 1/18=20,19=15,26=3/3(2);
 2/9=110,15=1/2;
 99//99;
 2/9=110,15=1/2;
 3/5=1,6=6,7=1,11=2,25=1,30=1,71=1,74=-5/1,2,3;
 4/5=5,16=3,69=1/1;
 5/5=2,38=5/2;
 7/30=1/1,2,3,16;
 1/18=20,19=15,26=3/3(-5);
 2/9=110,15=1/2;
 6/7=2,8=2,9=2,10=2,19=2,28=1/1;
 99/9=1/99;
 ------------
 Optimization
 ------------
 Symbolic Z-matrix:
 Charge =  0 Multiplicity = 1
 N(Fragment=1)         0.        0.0001   -0.3263 
 C(Fragment=1)         1.0818    0.947     0.1088 
 C(Fragment=1)         0.2793   -1.4103    0.1087 
 C(Fragment=1)        -1.3611    0.4632    0.1088 
 H(Fragment=1)         0.0001    0.0001   -1.3553 
 H(Fragment=1)         1.108     0.9697    1.2015 
 H(Fragment=1)         2.0305    0.5882   -0.2988 
 H(Fragment=1)         0.8516    1.935    -0.2985 
 H(Fragment=1)         0.2859   -1.4443    1.2015 
 H(Fragment=1)        -0.5057   -2.0525   -0.2989 
 H(Fragment=1)         1.2501   -1.7048   -0.2986 
 H(Fragment=1)        -1.5248    1.4643   -0.2985 
 H(Fragment=1)        -2.1014   -0.2302   -0.2988 
 H(Fragment=1)        -1.3939    0.4742    1.2016 
 C(Fragment=2)        -0.2988   -1.6632   -6.9258 
 C(Fragment=2)        -0.735    -1.3464   -5.4784 
 O(Fragment=2)        -1.9472   -1.5393   -5.2017 
 O(Fragment=2)         0.1831   -0.9246   -4.726 
 H(Fragment=2)         0.492    -2.4136   -6.9085 
 H(Fragment=2)        -1.1333   -2.0222   -7.5246 
 H(Fragment=2)         0.1219   -0.766    -7.3806 
 
 Add virtual bond connecting atoms O18        and H5         Dist= 6.61D+00.
 The following ModRedundant input section has been read:
 

 GradGradGradGradGradGradGradGradGradGradGradGradGradGradGradGradGradGrad
 Berny optimization.
 Initialization pass.
                           ----------------------------
                           !    Initial Parameters    !
                           ! (Angstroms and Degrees)  !
 --------------------------                            --------------------------
 ! Name  Definition              Value          Derivative Info.                !
 --------------------------------------------------------------------------------
 ! R1    R(1,2)                  1.5021         estimate D2E/DX2                !
 ! R2    R(1,3)                  1.5022         estimate D2E/DX2                !
 ! R3    R(1,4)                  1.5021         estimate D2E/DX2                !
 ! R4    R(1,5)                  1.029          estimate D2E/DX2                !
 ! R5    R(2,6)                  1.0932         estimate D2E/DX2                !
 ! R6    R(2,7)                  1.0931         estimate D2E/DX2                !
 ! R7    R(2,8)                  1.0932         estimate D2E/DX2                !
 ! R8    R(3,9)                  1.0933         estimate D2E/DX2                !
 ! R9    R(3,10)                 1.0931         estimate D2E/DX2                !
 ! R10   R(3,11)                 1.0932         estimate D2E/DX2                !
 ! R11   R(4,12)                 1.0931         estimate D2E/DX2                !
 ! R12   R(4,13)                 1.0932         estimate D2E/DX2                !
 ! R13   R(4,14)                 1.0933         estimate D2E/DX2                !
 ! R14   R(5,18)                 3.5            estimate D2E/DX2                !
 ! R15   R(15,16)                1.5445         estimate D2E/DX2                !
 ! R16   R(15,19)                1.0903         estimate D2E/DX2                !
 ! R17   R(15,20)                1.088          estimate D2E/DX2                !
 ! R18   R(15,21)                1.0903         estimate D2E/DX2                !
 ! R19   R(16,17)                1.2583         estimate D2E/DX2                !
 ! R20   R(16,18)                1.2597         estimate D2E/DX2                !
 ! A1    A(2,1,3)              111.9686         estimate D2E/DX2                !
 ! A2    A(2,1,4)              111.9834         estimate D2E/DX2                !
 ! A3    A(2,1,5)              106.8338         estimate D2E/DX2                !
 ! A4    A(3,1,4)              111.9665         estimate D2E/DX2                !
 ! A5    A(3,1,5)              106.832          estimate D2E/DX2                !
 ! A6    A(4,1,5)              106.8427         estimate D2E/DX2                !
 ! A7    A(1,2,6)              108.6551         estimate D2E/DX2                !
 ! A8    A(1,2,7)              108.0668         estimate D2E/DX2                !
 ! A9    A(1,2,8)              108.0689         estimate D2E/DX2                !
 ! A10   A(6,2,7)              111.0208         estimate D2E/DX2                !
 ! A11   A(6,2,8)              111.019          estimate D2E/DX2                !
 ! A12   A(7,2,8)              109.9065         estimate D2E/DX2                !
 ! A13   A(1,3,9)              108.6484         estimate D2E/DX2                !
 ! A14   A(1,3,10)             108.0666         estimate D2E/DX2                !
 ! A15   A(1,3,11)             108.069          estimate D2E/DX2                !
 ! A16   A(9,3,10)             111.025          estimate D2E/DX2                !
 ! A17   A(9,3,11)             111.0175         estimate D2E/DX2                !
 ! A18   A(10,3,11)            109.9105         estimate D2E/DX2                !
 ! A19   A(1,4,12)             108.0662         estimate D2E/DX2                !
 ! A20   A(1,4,13)             108.0639         estimate D2E/DX2                !
 ! A21   A(1,4,14)             108.6507         estimate D2E/DX2                !
 ! A22   A(12,4,13)            109.9116         estimate D2E/DX2                !
 ! A23   A(12,4,14)            111.0212         estimate D2E/DX2                !
 ! A24   A(13,4,14)            111.0231         estimate D2E/DX2                !
 ! A25   A(1,5,18)             164.3771         estimate D2E/DX2                !
 ! A26   A(16,15,19)           109.3376         estimate D2E/DX2                !
 ! A27   A(16,15,20)           111.5188         estimate D2E/DX2                !
 ! A28   A(16,15,21)           109.3344         estimate D2E/DX2                !
 ! A29   A(19,15,20)           109.751          estimate D2E/DX2                !
 ! A30   A(19,15,21)           107.0439         estimate D2E/DX2                !
 ! A31   A(20,15,21)           109.7479         estimate D2E/DX2                !
 ! A32   A(15,16,17)           116.5328         estimate D2E/DX2                !
 ! A33   A(15,16,18)           114.9962         estimate D2E/DX2                !
 ! A34   A(17,16,18)           128.471          estimate D2E/DX2                !
 ! A35   A(5,18,16)            128.723          estimate D2E/DX2                !
 ! D1    D(3,1,2,6)            -63.3539         estimate D2E/DX2                !
 ! D2    D(3,1,2,7)             57.2009         estimate D2E/DX2                !
 ! D3    D(3,1,2,8)            176.0921         estimate D2E/DX2                !
 ! D4    D(4,1,2,6)             63.3601         estimate D2E/DX2                !
 ! D5    D(4,1,2,7)           -176.0851         estimate D2E/DX2                !
 ! D6    D(4,1,2,8)            -57.1939         estimate D2E/DX2                !
 ! D7    D(5,1,2,6)           -179.9865         estimate D2E/DX2                !
 ! D8    D(5,1,2,7)            -59.4316         estimate D2E/DX2                !
 ! D9    D(5,1,2,8)             59.4596         estimate D2E/DX2                !
 ! D10   D(2,1,3,9)             63.3679         estimate D2E/DX2                !
 ! D11   D(2,1,3,10)          -176.0762         estimate D2E/DX2                !
 ! D12   D(2,1,3,11)           -57.1804         estimate D2E/DX2                !
 ! D13   D(4,1,3,9)            -63.3553         estimate D2E/DX2                !
 ! D14   D(4,1,3,10)            57.2006         estimate D2E/DX2                !
 ! D15   D(4,1,3,11)           176.0965         estimate D2E/DX2                !
 ! D16   D(5,1,3,9)           -179.9985         estimate D2E/DX2                !
 ! D17   D(5,1,3,10)           -59.4426         estimate D2E/DX2                !
 ! D18   D(5,1,3,11)            59.4532         estimate D2E/DX2                !
 ! D19   D(2,1,4,12)            57.194          estimate D2E/DX2                !
 ! D20   D(2,1,4,13)           176.0882         estimate D2E/DX2                !
 ! D21   D(2,1,4,14)           -63.3584         estimate D2E/DX2                !
 ! D22   D(3,1,4,12)          -176.0909         estimate D2E/DX2                !
 ! D23   D(3,1,4,13)           -57.1967         estimate D2E/DX2                !
 ! D24   D(3,1,4,14)            63.3567         estimate D2E/DX2                !
 ! D25   D(5,1,4,12)           -59.4541         estimate D2E/DX2                !
 ! D26   D(5,1,4,13)            59.4401         estimate D2E/DX2                !
 ! D27   D(5,1,4,14)           179.9935         estimate D2E/DX2                !
 ! D28   D(2,1,5,18)           120.0198         estimate D2E/DX2                !
 ! D29   D(3,1,5,18)             0.0282         estimate D2E/DX2                !
 ! D30   D(4,1,5,18)          -119.9656         estimate D2E/DX2                !
 ! D31   D(1,5,18,16)           88.569          estimate D2E/DX2                !
 ! D32   D(19,15,16,17)       -121.5586         estimate D2E/DX2                !
 ! D33   D(19,15,16,18)         58.444          estimate D2E/DX2                !
 ! D34   D(20,15,16,17)         -0.0021         estimate D2E/DX2                !
 ! D35   D(20,15,16,18)       -179.9995         estimate D2E/DX2                !
 ! D36   D(21,15,16,17)        121.5484         estimate D2E/DX2                !
 ! D37   D(21,15,16,18)        -58.449          estimate D2E/DX2                !
 ! D38   D(15,16,18,5)        -179.998          estimate D2E/DX2                !
 ! D39   D(17,16,18,5)           0.005          estimate D2E/DX2                !
 --------------------------------------------------------------------------------
 Trust Radius=3.00D-01 FncErr=1.00D-07 GrdErr=1.00D-06 EigMax=2.50D+02 EigMin=1.00D-04
 Number of steps in this run=    104 maximum allowed number of steps=    126.
 GradGradGradGradGradGradGradGradGradGradGradGradGradGradGradGradGradGrad

                          Input orientation:                          
 ---------------------------------------------------------------------
 Center     Atomic      Atomic             Coordinates (Angstroms)
 Number     Number       Type             X           Y           Z
 ---------------------------------------------------------------------
      1          7           0        0.000000    0.000100   -0.326300
      2          6           0        1.081800    0.947000    0.108800
      3          6           0        0.279300   -1.410300    0.108700
      4          6           0       -1.361100    0.463200    0.108800
      5          1           0        0.000100    0.000100   -1.355300
      6          1           0        1.108000    0.969700    1.201500
      7          1           0        2.030500    0.588200   -0.298800
      8          1           0        0.851600    1.935000   -0.298500
      9          1           0        0.285900   -1.444300    1.201500
     10          1           0       -0.505700   -2.052500   -0.298900
     11          1           0        1.250100   -1.704800   -0.298600
     12          1           0       -1.524800    1.464300   -0.298500
     13          1           0       -2.101400   -0.230200   -0.298800
     14          1           0       -1.393900    0.474200    1.201600
     15          6           0       -0.298800   -1.663200   -6.925800
     16          6           0       -0.735000   -1.346400   -5.478400
     17          8           0       -1.947200   -1.539300   -5.201700
     18          8           0        0.183100   -0.924600   -4.726000
     19          1           0        0.492000   -2.413600   -6.908500
     20          1           0       -1.133300   -2.022200   -7.524600
     21          1           0        0.121900   -0.766000   -7.380600
 ---------------------------------------------------------------------
                    Distance matrix (angstroms):
                    1          2          3          4          5
     1  N    0.000000
     2  C    1.502073   0.000000
     3  C    1.502152   2.490155   0.000000
     4  C    1.502121   2.490346   2.490164   0.000000
     5  H    1.029000   2.051897   2.051945   2.052052   0.000000
     6  H    2.121783   1.093250   2.746881   2.747179   2.950389
     7  H    2.114131   1.093118   2.688263   3.418291   2.363171
     8  H    2.114198   1.093174   3.418241   2.688518   2.363412
     9  H    2.121840   2.746956   1.093349   2.746845   2.950457
    10  H    2.114155   3.418095   1.093062   2.688248   2.363257
    11  H    2.114285   2.688186   1.093195   3.418269   2.363429
    12  H    2.114159   2.688467   3.418174   1.093111   2.363478
    13  H    2.114161   3.418289   2.688201   1.093154   2.363373
    14  H    2.121840   2.747152   2.746883   1.093347   2.950550
    15  C    6.812433   7.629207   7.062744   7.425339   5.821201
    16  C    5.375632   6.306921   5.678783   5.906222   4.399249
    17  O    5.470911   6.599844   5.759713   5.705693   4.577829
    18  O    4.499551   5.261733   4.859988   5.261733   3.500025
    19  H    7.028042   7.802820   7.091752   7.807205   6.075026
    20  H    7.562380   8.484787   7.786985   8.031059   6.590490
    21  H    7.096824   7.742538   7.518611   7.733132   6.075030
                    6          7          8          9         10
     6  H    0.000000
     7  H    1.802068   0.000000
     8  H    1.802095   1.789881   0.000000
     9  H    2.550146   3.070112   3.740279   0.000000
    10  H    3.740177   3.661367   4.212175   1.802148   0.000000
    11  H    3.069763   2.422163   3.661550   1.802177   1.789896
    12  H    3.070222   3.661654   2.422568   3.740132   3.661482
    13  H    3.740442   4.212170   3.661735   3.069876   2.422196
    14  H    2.550495   3.740416   3.070262   2.549975   3.069953
    15  C    8.658190   7.376420   7.628340   8.151245   6.641548
    16  C    7.306301   6.182146   6.333739   6.758172   5.232435
    17  O    7.525311   6.662341   6.629134   6.782089   5.136024
    18  O    6.291190   5.030065   5.312905   5.951127   4.620153
    19  H    8.808988   7.420641   7.920337   8.170319   6.694222
    20  H    9.493140   8.308791   8.474419   8.859623   7.252968
    21  H    8.811214   7.458452   7.614723   8.610426   7.224918
                   11         12         13         14         15
    11  H    0.000000
    12  H    4.212275   0.000000
    13  H    3.661557   1.789916   0.000000
    14  H    3.740238   1.802147   1.802203   0.000000
    15  C    6.805924   7.430036   7.015696   8.474807   0.000000
    16  C    5.558723   5.946022   5.471856   6.954936   1.544539
    17  O    5.855810   5.765536   5.077002   6.735174   2.388534
    18  O    4.620506   5.312864   5.030033   6.291265   2.369995
    19  H    6.690881   7.924499   7.428398   8.813043   1.090305
    20  H    7.615538   8.032775   7.507374   9.080005   1.088041
    21  H    7.232490   7.605393   7.441911   8.802835   1.090321
                   16         17         18         19         20
    16  C    0.000000
    17  O    1.258254   0.000000
    18  O    1.259734   2.267669   0.000000
    19  H    2.165556   3.102783   2.660046   0.000000
    20  H    2.191411   2.508284   3.281737   1.781677   0.000000
    21  H    2.165527   3.102704   2.660038   1.753408   1.781657
                   21
    21  H    0.000000
 Symmetry turned off by external request.
 Stoichiometry    C5H13NO2
 Framework group  C1[X(C5H13NO2)]
 Deg. of freedom    57
 Full point group                 C1      NOp   1
 Rotational constants (GHZ):           3.3620377           0.4549997           0.4379402
 Standard basis: 6-31G(d) (6D, 7F)
   146 basis functions,   276 primitive gaussians,   146 cartesian basis functions
    33 alpha electrons       33 beta electrons
       nuclear repulsion energy       354.7563288907 Hartrees.
 NAtoms=   21 NActive=   21 NUniq=   21 SFac= 1.00D+00 NAtFMM=   60 NAOKFM=F Big=F
 Integral buffers will be    131072 words long.
 Raffenetti 2 integral format.
 Two-electron integral symmetry is turned off.
 One-electron integrals computed using PRISM.
 NBasis=   146 RedAO= T EigKep=  4.37D-03  NBF=   146
 NBsUse=   146 1.00D-06 EigRej= -1.00D+00 NBFU=   146
 ExpMin= 1.61D-01 ExpMax= 5.48D+03 ExpMxC= 8.25D+02 IAcc=3 IRadAn=         5 AccDes= 0.00D+00
 Harris functional with IExCor=  402 and IRadAn=       5 diagonalized for initial guess.
 HarFok:  IExCor=  402 AccDes= 0.00D+00 IRadAn=         5 IDoV= 1 UseB2=F ITyADJ=14
 ICtDFT=  3500011 ScaDFX=  1.000000  1.000000  1.000000  1.000000
 FoFCou: FMM=F IPFlag=           0 FMFlag=      100000 FMFlg1=           0
         NFxFlg=           0 DoJE=T BraDBF=F KetDBF=T FulRan=T
         wScrn=  0.000000 ICntrl=       500 IOpCl=  0 I1Cent=   200000004 NGrid=           0
         NMat0=    1 NMatS0=      1 NMatT0=    0 NMatD0=    1 NMtDS0=    0 NMtDT0=    0
 Symmetry not used in FoFCou.
 Requested convergence on RMS density matrix=1.00D-08 within 128 cycles.
 Requested convergence on MAX density matrix=1.00D-06.
 Requested convergence on             energy=1.00D-06.
 No special actions if energy rises.
 Integral accuracy reduced to 1.0D-05 until final iterations.
 Initial convergence to 1.0D-05 achieved.  Increase integral accuracy.
 SCF Done:  E(RB3LYP) =  -403.457731259     A.U. after   19 cycles
            NFock= 19  Conv=0.77D-08     -V/T= 2.0093

 **********************************************************************

            Population analysis using the SCF Density.

 **********************************************************************

 Alpha  occ. eigenvalues --  -18.95595 -18.94784 -14.54665 -10.32681 -10.32301
 Alpha  occ. eigenvalues --  -10.32051 -10.14066 -10.06716  -1.09771  -0.88292
 Alpha  occ. eigenvalues --   -0.83396  -0.83108  -0.79613  -0.75653  -0.64793
 Alpha  occ. eigenvalues --   -0.60252  -0.59318  -0.59263  -0.52005  -0.51750
 Alpha  occ. eigenvalues --   -0.49234  -0.49056  -0.48863  -0.48659  -0.37178
 Alpha  occ. eigenvalues --   -0.31885  -0.31008  -0.28959  -0.25337  -0.22904
 Alpha  occ. eigenvalues --   -0.11312  -0.10538  -0.09265
 Alpha virt. eigenvalues --   -0.03702   0.02496   0.03173   0.04193   0.04446
 Alpha virt. eigenvalues --    0.05725   0.05787   0.06610   0.09125   0.09566
 Alpha virt. eigenvalues --    0.09986   0.10214   0.13489   0.18614   0.21370
 Alpha virt. eigenvalues --    0.26656   0.28506   0.35307   0.38413   0.38444
 Alpha virt. eigenvalues --    0.39708   0.42580   0.42936   0.44319   0.49310
 Alpha virt. eigenvalues --    0.51696   0.59268   0.59570   0.64738   0.65707
 Alpha virt. eigenvalues --    0.67186   0.67397   0.69550   0.71896   0.72192
 Alpha virt. eigenvalues --    0.73488   0.74781   0.76238   0.79512   0.80078
 Alpha virt. eigenvalues --    0.80401   0.81167   0.81946   0.84954   0.85305
 Alpha virt. eigenvalues --    0.86161   0.87838   0.88376   0.90354   0.91504
 Alpha virt. eigenvalues --    0.97028   0.97532   1.01670   1.05628   1.06806
 Alpha virt. eigenvalues --    1.11319   1.20276   1.20674   1.22674   1.25779
 Alpha virt. eigenvalues --    1.25903   1.29451   1.31892   1.32269   1.53713
 Alpha virt. eigenvalues --    1.60138   1.61366   1.65894   1.67371   1.73309
 Alpha virt. eigenvalues --    1.73404   1.74067   1.82658   1.82832   1.90189
 Alpha virt. eigenvalues --    1.93177   1.94494   1.95754   1.97952   1.98063
 Alpha virt. eigenvalues --    1.98822   2.00008   2.02695   2.04682   2.08999
 Alpha virt. eigenvalues --    2.10062   2.10116   2.11772   2.13589   2.15191
 Alpha virt. eigenvalues --    2.24223   2.35243   2.36127   2.36531   2.36563
 Alpha virt. eigenvalues --    2.38725   2.56327   2.57278   2.57413   2.59962
 Alpha virt. eigenvalues --    2.86113   2.94462   3.04292   3.06838   3.25118
 Alpha virt. eigenvalues --    3.85223   3.97192   4.13496   4.13875   4.22237
 Alpha virt. eigenvalues --    4.23586   4.27358   4.56553
          Condensed to atoms (all electrons):
               1          2          3          4          5          6
     1  N    6.803343   0.242531   0.240094   0.240814   0.216469  -0.033853
     2  C    0.242531   5.078987  -0.045482  -0.045714  -0.024577   0.378297
     3  C    0.240094  -0.045482   5.083319  -0.045013  -0.024662  -0.002543
     4  C    0.240814  -0.045714  -0.045013   5.082056  -0.024644  -0.002601
     5  H    0.216469  -0.024577  -0.024662  -0.024644   0.418683   0.003871
     6  H   -0.033853   0.378297  -0.002543  -0.002601   0.003871   0.487412
     7  H   -0.030161   0.377627  -0.001695   0.003853  -0.000159  -0.022528
     8  H   -0.030507   0.377359   0.003874  -0.001815  -0.000199  -0.022891
     9  H   -0.034372  -0.002940   0.376002  -0.002867   0.004232   0.004172
    10  H   -0.029299   0.003731   0.377306  -0.001676   0.000207  -0.000016
    11  H   -0.029803  -0.001897   0.377332   0.003774  -0.000100  -0.000403
    12  H   -0.030271  -0.001959   0.003831   0.377420  -0.000310  -0.000408
    13  H   -0.029234   0.003758  -0.001637   0.377815  -0.000092  -0.000017
    14  H   -0.034016  -0.002832  -0.002695   0.377513   0.003909   0.004169
    15  C   -0.000000   0.000000   0.000000   0.000000   0.000022   0.000000
    16  C   -0.000041   0.000000   0.000001   0.000000   0.000654   0.000000
    17  O   -0.000000  -0.000000  -0.000000  -0.000000  -0.000013  -0.000000
    18  O   -0.000363   0.000003   0.000010   0.000003   0.006174   0.000000
    19  H    0.000000  -0.000000   0.000000  -0.000000  -0.000000  -0.000000
    20  H    0.000000  -0.000000  -0.000000  -0.000000  -0.000000  -0.000000
    21  H    0.000000  -0.000000  -0.000000  -0.000000  -0.000000  -0.000000
               7          8          9         10         11         12
     1  N   -0.030161  -0.030507  -0.034372  -0.029299  -0.029803  -0.030271
     2  C    0.377627   0.377359  -0.002940   0.003731  -0.001897  -0.001959
     3  C   -0.001695   0.003874   0.376002   0.377306   0.377332   0.003831
     4  C    0.003853  -0.001815  -0.002867  -0.001676   0.003774   0.377420
     5  H   -0.000159  -0.000199   0.004232   0.000207  -0.000100  -0.000310
     6  H   -0.022528  -0.022891   0.004172  -0.000016  -0.000403  -0.000408
     7  H    0.460280  -0.020080  -0.000398   0.000027   0.003847   0.000015
     8  H   -0.020080   0.467237  -0.000003  -0.000154   0.000020   0.003919
     9  H   -0.000398  -0.000003   0.495547  -0.022383  -0.023292  -0.000004
    10  H    0.000027  -0.000154  -0.022383   0.443344  -0.017849   0.000028
    11  H    0.003847   0.000020  -0.023292  -0.017849   0.457235  -0.000160
    12  H    0.000015   0.003919  -0.000004   0.000028  -0.000160   0.466063
    13  H   -0.000153   0.000018  -0.000387   0.003702   0.000029  -0.018869
    14  H   -0.000013  -0.000415   0.004156  -0.000397  -0.000013  -0.023409
    15  C    0.000000   0.000000   0.000000   0.000000   0.000000   0.000000
    16  C    0.000000   0.000000   0.000000   0.000013   0.000003   0.000001
    17  O   -0.000000  -0.000000  -0.000000   0.000001  -0.000000   0.000000
    18  O    0.000005   0.000002   0.000000   0.000032   0.000026   0.000002
    19  H   -0.000000  -0.000000  -0.000000  -0.000000  -0.000000  -0.000000
    20  H   -0.000000  -0.000000  -0.000000  -0.000000  -0.000000  -0.000000
    21  H   -0.000000  -0.000000  -0.000000  -0.000000  -0.000000  -0.000000
              13         14         15         16         17         18
     1  N   -0.029234  -0.034016  -0.000000  -0.000041  -0.000000  -0.000363
     2  C    0.003758  -0.002832   0.000000   0.000000  -0.000000   0.000003
     3  C   -0.001637  -0.002695   0.000000   0.000001  -0.000000   0.000010
     4  C    0.377815   0.377513   0.000000   0.000000  -0.000000   0.000003
     5  H   -0.000092   0.003909   0.000022   0.000654  -0.000013   0.006174
     6  H   -0.000017   0.004169   0.000000   0.000000  -0.000000   0.000000
     7  H   -0.000153  -0.000013   0.000000   0.000000  -0.000000   0.000005
     8  H    0.000018  -0.000415   0.000000   0.000000  -0.000000   0.000002
     9  H   -0.000387   0.004156   0.000000   0.000000  -0.000000   0.000000
    10  H    0.003702  -0.000397   0.000000   0.000013   0.000001   0.000032
    11  H    0.000029  -0.000013   0.000000   0.000003  -0.000000   0.000026
    12  H   -0.018869  -0.023409   0.000000   0.000001   0.000000   0.000002
    13  H    0.444055  -0.022122   0.000000   0.000006   0.000003   0.000007
    14  H   -0.022122   0.491263   0.000000   0.000000   0.000000   0.000000
    15  C    0.000000   0.000000   5.560700   0.251439  -0.136703  -0.154266
    16  C    0.000006   0.000000   0.251439   4.277363   0.540036   0.466259
    17  O    0.000003   0.000000  -0.136703   0.540036   8.299920  -0.089550
    18  O    0.000007   0.000000  -0.154266   0.466259  -0.089550   8.419500
    19  H   -0.000000  -0.000000   0.335136  -0.016844   0.002314   0.005482
    20  H   -0.000000  -0.000000   0.309511  -0.011144   0.012120   0.005397
    21  H   -0.000000  -0.000000   0.335841  -0.016834   0.002292   0.005479
              19         20         21
     1  N    0.000000   0.000000   0.000000
     2  C   -0.000000  -0.000000  -0.000000
     3  C    0.000000  -0.000000  -0.000000
     4  C   -0.000000  -0.000000  -0.000000
     5  H   -0.000000  -0.000000  -0.000000
     6  H   -0.000000  -0.000000  -0.000000
     7  H   -0.000000  -0.000000  -0.000000
     8  H   -0.000000  -0.000000  -0.000000
     9  H   -0.000000  -0.000000  -0.000000
    10  H   -0.000000  -0.000000  -0.000000
    11  H   -0.000000  -0.000000  -0.000000
    12  H   -0.000000  -0.000000  -0.000000
    13  H   -0.000000  -0.000000  -0.000000
    14  H   -0.000000  -0.000000  -0.000000
    15  C    0.335136   0.309511   0.335841
    16  C   -0.016844  -0.011144  -0.016834
    17  O    0.002314   0.012120   0.002292
    18  O    0.005482   0.005397   0.005479
    19  H    0.626080  -0.029342  -0.030913
    20  H   -0.029342   0.628618  -0.029137
    21  H   -0.030913  -0.029137   0.623279
 Mulliken charges:
               1
     1  N   -0.461332
     2  C   -0.336891
     3  C   -0.338043
     4  C   -0.338918
     5  H    0.420534
     6  H    0.207338
     7  H    0.229531
     8  H    0.223636
     9  H    0.202537
    10  H    0.243384
    11  H    0.231251
    12  H    0.224112
    13  H    0.243117
    14  H    0.204901
    15  C   -0.501680
    16  C    0.509088
    17  O   -0.630419
    18  O   -0.664203
    19  H    0.108088
    20  H    0.113976
    21  H    0.109993
 Sum of Mulliken charges =  -0.00000
 Mulliken charges with hydrogens summed into heavy atoms:
               1
     1  N   -0.040799
     2  C    0.323614
     3  C    0.339129
     4  C    0.333213
    15  C   -0.169623
    16  C    0.509088
    17  O   -0.630419
    18  O   -0.664203
         Mulliken charges condensed to fragments:
      1      0.955158
      2     -0.955158
 Electronic spatial extent (au):  <R**2>=           4481.4921
 Charge=             -0.0000 electrons
 Dipole moment (field-independent basis, Debye):
    X=              3.8602    Y=              5.3590    Z=             20.9657  Tot=             21.9814
 Quadrupole moment (field-independent basis, Debye-Ang):
   XX=            -55.7119   YY=            -51.5592   ZZ=           -158.0106
   XY=             -6.9069   XZ=            -20.4408   YZ=            -27.9539
 Traceless Quadrupole moment (field-independent basis, Debye-Ang):
   XX=             32.7153   YY=             36.8680   ZZ=            -69.5834
   XY=             -6.9069   XZ=            -20.4408   YZ=            -27.9539
 Octapole moment (field-independent basis, Debye-Ang**2):
  XXX=             69.3525  YYY=            109.7532  ZZZ=            987.5854  XYY=             28.0641
  XXY=             52.2893  XXZ=            195.2992  XZZ=            121.8316  YZZ=            180.5129
  YYZ=            174.3026  XYZ=             36.0508
 Hexadecapole moment (field-independent basis, Debye-Ang**3):
 XXXX=           -390.2745 YYYY=           -502.8513 ZZZZ=          -8062.8362 XXXY=           -109.9028
 XXXZ=           -383.6789 YYYX=            -93.4370 YYYZ=           -654.6206 ZZZX=           -811.5297
 ZZZY=          -1398.6554 XXYY=           -165.9054 XXZZ=          -1191.8196 YYZZ=          -1119.1453
 XXYZ=           -288.4531 YYXZ=           -147.2932 ZZXY=           -210.7611
 N-N= 3.547563288907D+02 E-N=-1.650891268156D+03  KE= 3.997486575696D+02
 Calling FoFJK, ICntrl=      2127 FMM=F ISym2X=0 I1Cent= 0 IOpClX= 0 NMat=1 NMatS=1 NMatT=0.
 -------------------------------------------------------------------
 Center     Atomic                   Forces (Hartrees/Bohr)
 Number     Number              X              Y              Z
 -------------------------------------------------------------------
      1        7           0.000288592    0.000684435   -0.000063240
      2        6          -0.000186890   -0.000285392   -0.002791039
      3        6           0.000031895   -0.001238096   -0.002620322
      4        6          -0.000689024   -0.000259724   -0.002632159
      5        1          -0.000699987   -0.003309990   -0.009841507
      6        1           0.000315729    0.000318874   -0.001517372
      7        1          -0.000673354    0.001266212    0.001423601
      8        1           0.001248086   -0.000774081    0.001582068
      9        1           0.000035856    0.000037255   -0.001397349
     10        1           0.001788934   -0.000014725    0.000671125
     11        1          -0.001771084   -0.000748172    0.000993316
     12        1          -0.000975992   -0.001331258    0.001393513
     13        1           0.000205685    0.001586909    0.000939317
     14        1          -0.000178945    0.000152036   -0.001495938
     15        6           0.000225525    0.000625742    0.001680431
     16        6          -0.015779420   -0.002704380    0.002586661
     17        8           0.004232322    0.001520577    0.003108513
     18        8           0.009008250    0.005918227    0.015600880
     19        1           0.004030758   -0.003541912   -0.001446779
     20        1          -0.002849806   -0.001428344   -0.002734670
     21        1           0.002392869    0.003525806   -0.003439051
 -------------------------------------------------------------------
 Cartesian Forces:  Max     0.015779420 RMS     0.003777107

 GradGradGradGradGradGradGradGradGradGradGradGradGradGradGradGradGradGrad
 Berny optimization.
 FormGI is forming the generalized inverse of G from B-inverse, IUseBI=4.
 Internal  Forces:  Max     0.017055068 RMS     0.003071675
 Search for a local minimum.
 Step number   1 out of a maximum of  104
 All quantities printed in internal units (Hartrees-Bohrs-Radians)
 Mixed Optimization -- RFO/linear search
 Second derivative matrix not updated -- first step.
 ITU=  0
     Eigenvalues ---    0.00230   0.00230   0.00341   0.00341   0.00342
     Eigenvalues ---    0.00645   0.00706   0.01236   0.03219   0.03547
     Eigenvalues ---    0.04616   0.04618   0.05954   0.05954   0.05954
     Eigenvalues ---    0.06064   0.06064   0.06065   0.06907   0.07314
     Eigenvalues ---    0.14916   0.14918   0.16000   0.16000   0.16000
     Eigenvalues ---    0.16000   0.16000   0.16000   0.16000   0.16000
     Eigenvalues ---    0.16000   0.16000   0.16000   0.16000   0.16000
     Eigenvalues ---    0.25000   0.25000   0.25000   0.28121   0.32153
     Eigenvalues ---    0.32156   0.32161   0.34429   0.34429   0.34440
     Eigenvalues ---    0.34446   0.34448   0.34451   0.34455   0.34456
     Eigenvalues ---    0.34461   0.34776   0.34777   0.35040   0.42933
     Eigenvalues ---    0.79742   0.80260
 RFO step:  Lambda=-1.44775542D-02 EMin= 2.30000000D-03
 Linear search not attempted -- first point.
 Maximum step size (   0.300) exceeded in Quadratic search.
    -- Step size scaled by   0.405
 Iteration  1 RMS(Cart)=  0.06372797 RMS(Int)=  0.00998263
 Iteration  2 RMS(Cart)=  0.02171114 RMS(Int)=  0.00000875
 Iteration  3 RMS(Cart)=  0.00000562 RMS(Int)=  0.00000530
 Iteration  4 RMS(Cart)=  0.00000000 RMS(Int)=  0.00000530
 Variable       Old X    -DE/DX   Delta X   Delta X   Delta X     New X
                                 (Linear)    (Quad)   (Total)
    R1        2.83851   0.00046   0.00000   0.00055   0.00055   2.83906
    R2        2.83866   0.00118   0.00000   0.00142   0.00142   2.84008
    R3        2.83860   0.00101   0.00000   0.00122   0.00122   2.83981
    R4        1.94453  -0.00551   0.00000  -0.00503  -0.00503   1.93950
    R5        2.06594  -0.00150   0.00000  -0.00169  -0.00169   2.06425
    R6        2.06569  -0.00153   0.00000  -0.00173  -0.00173   2.06397
    R7        2.06580  -0.00155   0.00000  -0.00175  -0.00175   2.06405
    R8        2.06613  -0.00140   0.00000  -0.00158  -0.00158   2.06455
    R9        2.06559  -0.00153   0.00000  -0.00172  -0.00172   2.06387
   R10        2.06584  -0.00174   0.00000  -0.00196  -0.00196   2.06388
   R11        2.06568  -0.00159   0.00000  -0.00179  -0.00179   2.06389
   R12        2.06576  -0.00150   0.00000  -0.00169  -0.00169   2.06407
   R13        2.06613  -0.00149   0.00000  -0.00168  -0.00168   2.06445
   R14        6.61409  -0.01576   0.00000  -0.29616  -0.29616   6.31793
   R15        2.91875   0.00681   0.00000   0.00932   0.00932   2.92808
   R16        2.06038   0.00534   0.00000   0.00597   0.00597   2.06634
   R17        2.05610   0.00416   0.00000   0.00462   0.00462   2.06072
   R18        2.06041   0.00526   0.00000   0.00588   0.00588   2.06628
   R19        2.37775  -0.00363   0.00000  -0.00180  -0.00180   2.37596
   R20        2.38055   0.00646   0.00000   0.00322   0.00322   2.38377
    A1        1.95422   0.00039   0.00000   0.00286   0.00285   1.95707
    A2        1.95448   0.00022   0.00000   0.00325   0.00324   1.95772
    A3        1.86460   0.00049   0.00000   0.00218   0.00219   1.86679
    A4        1.95418   0.00025   0.00000   0.00142   0.00140   1.95558
    A5        1.86457  -0.00111   0.00000  -0.00743  -0.00743   1.85714
    A6        1.86476  -0.00035   0.00000  -0.00315  -0.00316   1.86160
    A7        1.89639  -0.00001   0.00000  -0.00062  -0.00062   1.89577
    A8        1.88612   0.00160   0.00000   0.00399   0.00399   1.89011
    A9        1.88616   0.00186   0.00000   0.00461   0.00460   1.89076
   A10        1.93768  -0.00102   0.00000  -0.00297  -0.00297   1.93471
   A11        1.93765  -0.00114   0.00000  -0.00327  -0.00327   1.93438
   A12        1.91823  -0.00111   0.00000  -0.00132  -0.00134   1.91689
   A13        1.89627  -0.00047   0.00000  -0.00115  -0.00114   1.89513
   A14        1.88612   0.00135   0.00000   0.00318   0.00317   1.88929
   A15        1.88616   0.00167   0.00000   0.00389   0.00389   1.89005
   A16        1.93775  -0.00044   0.00000  -0.00102  -0.00102   1.93673
   A17        1.93762  -0.00062   0.00000  -0.00151  -0.00151   1.93611
   A18        1.91830  -0.00137   0.00000  -0.00309  -0.00309   1.91520
   A19        1.88611   0.00192   0.00000   0.00459   0.00458   1.89069
   A20        1.88607   0.00136   0.00000   0.00334   0.00334   1.88941
   A21        1.89631  -0.00024   0.00000  -0.00088  -0.00087   1.89544
   A22        1.91832  -0.00125   0.00000  -0.00220  -0.00221   1.91611
   A23        1.93769  -0.00098   0.00000  -0.00268  -0.00267   1.93501
   A24        1.93772  -0.00066   0.00000  -0.00180  -0.00180   1.93592
   A25        2.86892  -0.00488   0.00000  -0.00747  -0.00747   2.86145
   A26        1.90830   0.00184   0.00000   0.00435   0.00434   1.91264
   A27        1.94637   0.00004   0.00000  -0.00006  -0.00006   1.94631
   A28        1.90824   0.00181   0.00000   0.00426   0.00426   1.91250
   A29        1.91552  -0.00109   0.00000  -0.00265  -0.00265   1.91286
   A30        1.86827  -0.00157   0.00000  -0.00334  -0.00335   1.86492
   A31        1.91546  -0.00107   0.00000  -0.00264  -0.00264   1.91282
   A32        2.03388   0.00453   0.00000   0.00693   0.00693   2.04081
   A33        2.00706   0.00064   0.00000   0.00099   0.00099   2.00805
   A34        2.24224  -0.00517   0.00000  -0.00792  -0.00792   2.23432
   A35        2.24664  -0.01706   0.00000  -0.03957  -0.03957   2.20707
    D1       -1.10573  -0.00054   0.00000  -0.00397  -0.00397  -1.10970
    D2        0.99834  -0.00084   0.00000  -0.00556  -0.00557   0.99278
    D3        3.07339  -0.00025   0.00000  -0.00237  -0.00237   3.07102
    D4        1.10584   0.00030   0.00000   0.00286   0.00286   1.10870
    D5       -3.07326  -0.00000   0.00000   0.00127   0.00126  -3.07200
    D6       -0.99822   0.00059   0.00000   0.00446   0.00446  -0.99376
    D7       -3.14136   0.00029   0.00000   0.00213   0.00214  -3.13922
    D8       -1.03728  -0.00000   0.00000   0.00054   0.00054  -1.03674
    D9        1.03777   0.00059   0.00000   0.00373   0.00373   1.04150
   D10        1.10598   0.00025   0.00000   0.00340   0.00340   1.10938
   D11       -3.07311   0.00024   0.00000   0.00336   0.00336  -3.06975
   D12       -0.99799   0.00029   0.00000   0.00360   0.00360  -0.99438
   D13       -1.10576  -0.00057   0.00000  -0.00442  -0.00442  -1.11018
   D14        0.99834  -0.00058   0.00000  -0.00446  -0.00446   0.99388
   D15        3.07346  -0.00053   0.00000  -0.00422  -0.00422   3.06925
   D16       -3.14157   0.00039   0.00000   0.00309   0.00309  -3.13848
   D17       -1.03747   0.00038   0.00000   0.00306   0.00305  -1.03442
   D18        1.03765   0.00042   0.00000   0.00329   0.00329   1.04095
   D19        0.99822  -0.00036   0.00000  -0.00384  -0.00384   0.99438
   D20        3.07332  -0.00003   0.00000  -0.00207  -0.00207   3.07125
   D21       -1.10581  -0.00017   0.00000  -0.00279  -0.00279  -1.10861
   D22       -3.07337   0.00055   0.00000   0.00377   0.00377  -3.06960
   D23       -0.99827   0.00088   0.00000   0.00553   0.00554  -0.99273
   D24        1.10578   0.00074   0.00000   0.00481   0.00482   1.11060
   D25       -1.03767  -0.00087   0.00000  -0.00632  -0.00633  -1.04400
   D26        1.03743  -0.00054   0.00000  -0.00456  -0.00456   1.03287
   D27        3.14148  -0.00067   0.00000  -0.00528  -0.00528   3.13620
   D28        2.09474  -0.00007   0.00000  -0.00092  -0.00092   2.09382
   D29        0.00049  -0.00020   0.00000  -0.00151  -0.00150  -0.00101
   D30       -2.09380   0.00027   0.00000   0.00237   0.00236  -2.09144
   D31        1.54582  -0.00108   0.00000  -0.02597  -0.02597   1.51985
   D32       -2.12160   0.00016   0.00000   0.00131   0.00132  -2.12028
   D33        1.02004   0.00003   0.00000  -0.00055  -0.00055   1.01949
   D34       -0.00004   0.00006   0.00000   0.00088   0.00089   0.00085
   D35       -3.14158  -0.00006   0.00000  -0.00098  -0.00099   3.14061
   D36        2.12142  -0.00004   0.00000   0.00041   0.00041   2.12183
   D37       -1.02013  -0.00016   0.00000  -0.00146  -0.00146  -1.02159
   D38       -3.14156  -0.00026   0.00000  -0.00164  -0.00164   3.13999
   D39        0.00009  -0.00040   0.00000  -0.00377  -0.00376  -0.00368
         Item               Value     Threshold  Converged?
 Maximum Force            0.017055     0.000450     NO 
 RMS     Force            0.003072     0.000300     NO 
 Maximum Displacement     0.335283     0.001800     NO 
 RMS     Displacement     0.083307     0.001200     NO 
 Predicted change in Energy=-5.334073D-03
 GradGradGradGradGradGradGradGradGradGradGradGradGradGradGradGradGradGrad

                          Input orientation:                          
 ---------------------------------------------------------------------
 Center     Atomic      Atomic             Coordinates (Angstroms)
 Number     Number       Type             X           Y           Z
 ---------------------------------------------------------------------
      1          7           0        0.001207   -0.005680   -0.383618
      2          6           0        1.079001    0.934707    0.075880
      3          6           0        0.272118   -1.424144    0.032655
      4          6           0       -1.367539    0.453103    0.033938
      5          1           0        0.014055    0.002752   -1.409841
      6          1           0        1.090804    0.944677    1.168124
      7          1           0        2.033745    0.581653   -0.320008
      8          1           0        0.858914    1.928895   -0.319288
      9          1           0        0.263235   -1.474455    1.123974
     10          1           0       -0.506160   -2.060417   -0.394235
     11          1           0        1.246698   -1.717462   -0.363530
     12          1           0       -1.527945    1.458745   -0.360740
     13          1           0       -2.103066   -0.232908   -0.392000
     14          1           0       -1.418004    0.450716    1.125228
     15          6           0       -0.307630   -1.643625   -6.811620
     16          6           0       -0.703619   -1.319268   -5.349141
     17          8           0       -1.900641   -1.525208   -5.024276
     18          8           0        0.232299   -0.877938   -4.627675
     19          1           0        0.496359   -2.384719   -6.817923
     20          1           0       -1.157254   -2.020800   -7.381737
     21          1           0        0.086522   -0.744223   -7.292567
 ---------------------------------------------------------------------
                    Distance matrix (angstroms):
                    1          2          3          4          5
     1  N    0.000000
     2  C    1.502367   0.000000
     3  C    1.502903   2.493413   0.000000
     4  C    1.502765   2.493845   2.492496   0.000000
     5  H    1.026338   2.051833   2.045343   2.048442   0.000000
     6  H    2.120920   1.092353   2.751517   2.751631   2.948307
     7  H    2.116652   1.092205   2.692754   3.422066   2.366856
     8  H    2.117163   1.092248   3.422143   2.694407   2.369202
     9  H    2.121036   2.751007   1.092514   2.750106   2.943544
    10  H    2.116478   3.421186   1.092151   2.691299   2.357699
    11  H    2.117038   2.693548   1.092156   3.421048   2.360786
    12  H    2.117397   2.694703   3.421409   1.092162   2.366071
    13  H    2.116523   3.421664   2.690887   1.092261   2.360876
    14  H    2.121102   2.751438   2.750514   1.092459   2.945851
    15  C    6.640591   7.483862   6.872291   7.237495   5.656258
    16  C    5.184468   6.139136   5.470538   5.706104   4.216737
    17  O    5.240391   6.398519   5.504875   5.457420   4.366333
    18  O    4.338923   5.111361   4.692398   5.105075   3.343307
    19  H    6.877884   7.673499   6.921230   7.646918   5.931272
    20  H    7.374037   8.327780   7.574452   7.820272   6.413289
    21  H    6.948835   7.622194   7.359051   7.564758   5.930404
                    6          7          8          9         10
     6  H    0.000000
     7  H    1.798739   0.000000
     8  H    1.798570   1.787537   0.000000
     9  H    2.557151   3.073658   3.744414   0.000000
    10  H    3.744575   3.665673   4.217067   1.800077   0.000000
    11  H    3.075264   2.430486   3.667185   1.799701   1.786357
    12  H    3.075636   3.668322   2.433076   3.743844   3.664651
    13  H    3.744529   4.216858   3.667698   3.072295   2.426912
    14  H    2.557333   3.744385   3.075060   2.555944   3.073437
    15  C    8.504777   7.250856   7.501606   7.957899   6.433969
    16  C    7.128824   6.033145   6.188012   6.546763   5.013919
    17  O    7.307180   6.484473   6.456228   6.518122   4.865008
    18  O    6.135979   4.891994   5.180073   5.782582   4.457083
    19  H    8.672669   7.306560   7.808391   7.997291   6.509531
    20  H    9.324588   8.174549   8.339257   8.640799   7.017883
    21  H    8.685866   7.359769   7.507914   8.450009   7.047739
                   11         12         13         14         15
    11  H    0.000000
    12  H    4.217457   0.000000
    13  H    3.664100   1.787017   0.000000
    14  H    3.744066   1.798975   1.799620   0.000000
    15  C    6.633193   7.261385   6.813606   8.283281   0.000000
    16  C    5.368297   5.768969   5.264206   6.749862   1.549471
    17  O    5.627189   5.549003   4.813418   6.477161   2.397145
    18  O    4.462817   5.173517   4.879644   6.130637   2.376429
    19  H    6.532031   7.782367   7.258084   8.648591   1.093462
    20  H    7.424704   7.844683   7.276506   8.862553   1.090484
    21  H    7.092585   7.450490   7.257655   8.634278   1.093431
                   16         17         18         19         20
    16  C    0.000000
    17  O    1.257303   0.000000
    18  O    1.261439   2.263997   0.000000
    19  H    2.175421   3.114730   2.671574   0.000000
    20  H    2.197585   2.521083   3.289658   1.784589   0.000000
    21  H    2.175295   3.115109   2.672225   1.756269   1.784539
                   21
    21  H    0.000000
 Symmetry turned off by external request.
 Stoichiometry    C5H13NO2
 Framework group  C1[X(C5H13NO2)]
 Deg. of freedom    57
 Full point group                 C1      NOp   1
 Rotational constants (GHZ):           3.3704677           0.4835221           0.4644112
 Standard basis: 6-31G(d) (6D, 7F)
   146 basis functions,   276 primitive gaussians,   146 cartesian basis functions
    33 alpha electrons       33 beta electrons
       nuclear repulsion energy       357.7865469524 Hartrees.
 NAtoms=   21 NActive=   21 NUniq=   21 SFac= 1.00D+00 NAtFMM=   60 NAOKFM=F Big=F
 Integral buffers will be    131072 words long.
 Raffenetti 2 integral format.
 Two-electron integral symmetry is turned off.
 One-electron integrals computed using PRISM.
 NBasis=   146 RedAO= T EigKep=  4.43D-03  NBF=   146
 NBsUse=   146 1.00D-06 EigRej= -1.00D+00 NBFU=   146
 Initial guess from the checkpoint file:  "Trimethylammonium-Acetate_1.chk"
 B after Tr=     0.020680    0.018037    0.052593
         Rot=    0.999999    0.000355   -0.000407   -0.001495 Ang=   0.18 deg.
 ExpMin= 1.61D-01 ExpMax= 5.48D+03 ExpMxC= 8.25D+02 IAcc=3 IRadAn=         5 AccDes= 0.00D+00
 Harris functional with IExCor=  402 and IRadAn=       5 diagonalized for initial guess.
 HarFok:  IExCor=  402 AccDes= 0.00D+00 IRadAn=         5 IDoV= 1 UseB2=F ITyADJ=14
 ICtDFT=  3500011 ScaDFX=  1.000000  1.000000  1.000000  1.000000
 FoFCou: FMM=F IPFlag=           0 FMFlag=      100000 FMFlg1=           0
         NFxFlg=           0 DoJE=T BraDBF=F KetDBF=T FulRan=T
         wScrn=  0.000000 ICntrl=       500 IOpCl=  0 I1Cent=   200000004 NGrid=           0
         NMat0=    1 NMatS0=      1 NMatT0=    0 NMatD0=    1 NMtDS0=    0 NMtDT0=    0
 Symmetry not used in FoFCou.
 Requested convergence on RMS density matrix=1.00D-08 within 128 cycles.
 Requested convergence on MAX density matrix=1.00D-06.
 Requested convergence on             energy=1.00D-06.
 No special actions if energy rises.
 Integral accuracy reduced to 1.0D-05 until final iterations.
 Initial convergence to 1.0D-05 achieved.  Increase integral accuracy.
 SCF Done:  E(RB3LYP) =  -403.463853867     A.U. after   12 cycles
            NFock= 12  Conv=0.87D-08     -V/T= 2.0093
 Calling FoFJK, ICntrl=      2127 FMM=F ISym2X=0 I1Cent= 0 IOpClX= 0 NMat=1 NMatS=1 NMatT=0.
 -------------------------------------------------------------------
 Center     Atomic                   Forces (Hartrees/Bohr)
 Number     Number              X              Y              Z
 -------------------------------------------------------------------
      1        7          -0.000033320    0.000222972    0.000345268
      2        6          -0.000722920   -0.000778041   -0.002055349
      3        6          -0.000134899   -0.000538442   -0.001528375
      4        6          -0.000011933   -0.000483068   -0.001699921
      5        1          -0.000411427   -0.003329966   -0.013768208
      6        1           0.000262597    0.000257222   -0.000778101
      7        1          -0.000484073    0.000653191    0.000851913
      8        1           0.000621289   -0.000508591    0.000986621
      9        1           0.000048597   -0.000018930   -0.000713603
     10        1           0.001105504    0.000144036    0.000147068
     11        1          -0.001134178   -0.000334871    0.000439674
     12        1          -0.000478008   -0.000813322    0.000809573
     13        1           0.000259292    0.000918896    0.000378250
     14        1          -0.000155414    0.000134202   -0.000771067
     15        6           0.000417937    0.000822151    0.001878451
     16        6          -0.014160924   -0.002648958    0.003834097
     17        8           0.003897904    0.001145505    0.001510104
     18        8           0.009271547    0.006077817    0.014792447
     19        1           0.002344727   -0.002081824   -0.000964093
     20        1          -0.001794162   -0.000888011   -0.001524863
     21        1           0.001291864    0.002048031   -0.002169885
 -------------------------------------------------------------------
 Cartesian Forces:  Max     0.014792447 RMS     0.003645523

 GradGradGradGradGradGradGradGradGradGradGradGradGradGradGradGradGradGrad
 Berny optimization.
 Using GEDIIS/GDIIS optimizer.
 FormGI is forming the generalized inverse of G from B-inverse, IUseBI=4.
 Internal  Forces:  Max     0.019377775 RMS     0.003012311
 Search for a local minimum.
 Step number   2 out of a maximum of  104
 All quantities printed in internal units (Hartrees-Bohrs-Radians)
 Mixed Optimization -- RFO/linear search
 Update second derivatives using D2CorX and points    1    2
 DE= -6.12D-03 DEPred=-5.33D-03 R= 1.15D+00
 TightC=F SS=  1.41D+00  RLast= 3.02D-01 DXNew= 5.0454D-01 9.0549D-01
 Trust test= 1.15D+00 RLast= 3.02D-01 DXMaxT set to 5.05D-01
 ITU=  1  0
 Use linear search instead of GDIIS.
     Eigenvalues ---   -0.01116   0.00230   0.00231   0.00340   0.00341
     Eigenvalues ---    0.00342   0.00645   0.01218   0.02970   0.03544
     Eigenvalues ---    0.04524   0.04634   0.05843   0.05943   0.05944
     Eigenvalues ---    0.05945   0.06020   0.06028   0.06887   0.07267
     Eigenvalues ---    0.10822   0.11908   0.14957   0.14970   0.16000
     Eigenvalues ---    0.16000   0.16000   0.16000   0.16000   0.16000
     Eigenvalues ---    0.16000   0.16000   0.16000   0.16000   0.16000
     Eigenvalues ---    0.21141   0.24748   0.25000   0.26473   0.31454
     Eigenvalues ---    0.32151   0.32156   0.32994   0.34429   0.34432
     Eigenvalues ---    0.34441   0.34447   0.34450   0.34453   0.34455
     Eigenvalues ---    0.34460   0.34541   0.34777   0.34991   0.42356
     Eigenvalues ---    0.78854   0.80169
 RFO step:  Lambda=-2.75964864D-02 EMin=-1.11599036D-02
 Skip linear search -- no minimum in search direction.
 Maximum step size (   0.505) exceeded in Quadratic search.
    -- Step size scaled by   0.499
 Iteration  1 RMS(Cart)=  0.12873310 RMS(Int)=  0.02978513
 Iteration  2 RMS(Cart)=  0.04874608 RMS(Int)=  0.00894993
 Iteration  3 RMS(Cart)=  0.01907494 RMS(Int)=  0.00001412
 Iteration  4 RMS(Cart)=  0.00000955 RMS(Int)=  0.00000898
 Iteration  5 RMS(Cart)=  0.00000000 RMS(Int)=  0.00000898
 Variable       Old X    -DE/DX   Delta X   Delta X   Delta X     New X
                                 (Linear)    (Quad)   (Total)
    R1        2.83906  -0.00077   0.00000  -0.00976  -0.00976   2.82930
    R2        2.84008   0.00023   0.00000  -0.00468  -0.00468   2.83539
    R3        2.83981  -0.00008   0.00000  -0.00654  -0.00654   2.83327
    R4        1.93950  -0.00357   0.00000  -0.00098  -0.00098   1.93852
    R5        2.06425  -0.00077   0.00000   0.00141   0.00141   2.06566
    R6        2.06397  -0.00094   0.00000   0.00009   0.00009   2.06406
    R7        2.06405  -0.00095   0.00000   0.00019   0.00019   2.06424
    R8        2.06455  -0.00071   0.00000   0.00137   0.00137   2.06593
    R9        2.06387  -0.00093   0.00000   0.00019   0.00019   2.06406
   R10        2.06388  -0.00108   0.00000   0.00003   0.00003   2.06390
   R11        2.06389  -0.00097   0.00000   0.00018   0.00018   2.06407
   R12        2.06407  -0.00090   0.00000   0.00028   0.00028   2.06436
   R13        2.06445  -0.00076   0.00000   0.00142   0.00142   2.06587
   R14        6.31793  -0.01780   0.00000  -0.48118  -0.48118   5.83675
   R15        2.92808   0.00322   0.00000  -0.01072  -0.01072   2.91736
   R16        2.06634   0.00314   0.00000  -0.00159  -0.00159   2.06475
   R17        2.06072   0.00250   0.00000  -0.00077  -0.00077   2.05994
   R18        2.06628   0.00310   0.00000  -0.00148  -0.00148   2.06481
   R19        2.37596  -0.00351   0.00000  -0.00493  -0.00493   2.37103
   R20        2.38377   0.00503   0.00000   0.00405   0.00405   2.38782
    A1        1.95707   0.00031   0.00000   0.00161   0.00162   1.95869
    A2        1.95772   0.00017   0.00000   0.00187   0.00187   1.95959
    A3        1.86679   0.00050   0.00000   0.00691   0.00692   1.87371
    A4        1.95558   0.00014   0.00000  -0.00132  -0.00133   1.95425
    A5        1.85714  -0.00092   0.00000  -0.00737  -0.00738   1.84976
    A6        1.86160  -0.00027   0.00000  -0.00201  -0.00204   1.85956
    A7        1.89577   0.00015   0.00000   0.00293   0.00293   1.89870
    A8        1.89011   0.00080   0.00000  -0.00363  -0.00363   1.88648
    A9        1.89076   0.00098   0.00000  -0.00333  -0.00333   1.88743
   A10        1.93471  -0.00060   0.00000   0.00094   0.00095   1.93566
   A11        1.93438  -0.00070   0.00000   0.00049   0.00050   1.93488
   A12        1.91689  -0.00054   0.00000   0.00238   0.00237   1.91927
   A13        1.89513  -0.00007   0.00000   0.00515   0.00516   1.90029
   A14        1.88929   0.00047   0.00000  -0.00707  -0.00708   1.88221
   A15        1.89005   0.00077   0.00000  -0.00554  -0.00556   1.88449
   A16        1.93673  -0.00010   0.00000   0.00429   0.00430   1.94103
   A17        1.93611  -0.00029   0.00000   0.00283   0.00283   1.93895
   A18        1.91520  -0.00072   0.00000  -0.00012  -0.00016   1.91504
   A19        1.89069   0.00099   0.00000  -0.00430  -0.00431   1.88639
   A20        1.88941   0.00051   0.00000  -0.00609  -0.00610   1.88331
   A21        1.89544   0.00005   0.00000   0.00414   0.00414   1.89958
   A22        1.91611  -0.00062   0.00000   0.00131   0.00128   1.91738
   A23        1.93501  -0.00058   0.00000   0.00123   0.00123   1.93624
   A24        1.93592  -0.00028   0.00000   0.00337   0.00338   1.93930
   A25        2.86145  -0.00544   0.00000  -0.02758  -0.02758   2.83386
   A26        1.91264   0.00115   0.00000   0.00001   0.00001   1.91265
   A27        1.94631  -0.00012   0.00000  -0.00279  -0.00279   1.94351
   A28        1.91250   0.00119   0.00000   0.00100   0.00100   1.91350
   A29        1.91286  -0.00064   0.00000   0.00039   0.00038   1.91325
   A30        1.86492  -0.00095   0.00000   0.00135   0.00135   1.86627
   A31        1.91282  -0.00065   0.00000   0.00023   0.00023   1.91305
   A32        2.04081   0.00304   0.00000   0.00243   0.00243   2.04324
   A33        2.00805  -0.00007   0.00000  -0.00545  -0.00545   2.00260
   A34        2.23432  -0.00298   0.00000   0.00302   0.00302   2.23734
   A35        2.20707  -0.01938   0.00000  -0.14657  -0.14657   2.06050
    D1       -1.10970  -0.00040   0.00000  -0.00126  -0.00126  -1.11096
    D2        0.99278  -0.00057   0.00000  -0.00054  -0.00054   0.99223
    D3        3.07102  -0.00021   0.00000  -0.00161  -0.00160   3.06941
    D4        1.10870   0.00019   0.00000  -0.00020  -0.00020   1.10850
    D5       -3.07200   0.00001   0.00000   0.00052   0.00051  -3.07149
    D6       -0.99376   0.00037   0.00000  -0.00055  -0.00055  -0.99431
    D7       -3.13922   0.00025   0.00000   0.00259   0.00259  -3.13663
    D8       -1.03674   0.00008   0.00000   0.00331   0.00330  -1.03344
    D9        1.04150   0.00044   0.00000   0.00224   0.00224   1.04374
   D10        1.10938   0.00016   0.00000   0.00066   0.00066   1.11004
   D11       -3.06975   0.00027   0.00000   0.00469   0.00468  -3.06507
   D12       -0.99438   0.00010   0.00000  -0.00250  -0.00249  -0.99687
   D13       -1.11018  -0.00044   0.00000  -0.00210  -0.00210  -1.11228
   D14        0.99388  -0.00033   0.00000   0.00193   0.00192   0.99580
   D15        3.06925  -0.00050   0.00000  -0.00527  -0.00525   3.06400
   D16       -3.13848   0.00037   0.00000   0.00540   0.00540  -3.13308
   D17       -1.03442   0.00047   0.00000   0.00943   0.00941  -1.02501
   D18        1.04095   0.00030   0.00000   0.00224   0.00225   1.04320
   D19        0.99438  -0.00018   0.00000   0.00144   0.00143   0.99581
   D20        3.07125  -0.00008   0.00000  -0.00284  -0.00283   3.06842
   D21       -1.10861  -0.00009   0.00000   0.00006   0.00006  -1.10854
   D22       -3.06960   0.00049   0.00000   0.00406   0.00406  -3.06554
   D23       -0.99273   0.00059   0.00000  -0.00021  -0.00020  -0.99293
   D24        1.11060   0.00058   0.00000   0.00269   0.00269   1.11329
   D25       -1.04400  -0.00070   0.00000  -0.00670  -0.00671  -1.05070
   D26        1.03287  -0.00061   0.00000  -0.01097  -0.01096   1.02191
   D27        3.13620  -0.00061   0.00000  -0.00807  -0.00807   3.12813
   D28        2.09382  -0.00006   0.00000  -0.00100  -0.00101   2.09281
   D29       -0.00101  -0.00019   0.00000  -0.00260  -0.00258  -0.00359
   D30       -2.09144   0.00025   0.00000   0.00374   0.00373  -2.08770
   D31        1.51985  -0.00130   0.00000  -0.03942  -0.03942   1.48043
   D32       -2.12028   0.00012   0.00000  -0.00033  -0.00033  -2.12061
   D33        1.01949   0.00008   0.00000   0.00308   0.00308   1.02256
   D34        0.00085   0.00002   0.00000  -0.00168  -0.00168  -0.00083
   D35        3.14061  -0.00002   0.00000   0.00173   0.00173  -3.14084
   D36        2.12183  -0.00008   0.00000  -0.00255  -0.00255   2.11928
   D37       -1.02159  -0.00012   0.00000   0.00086   0.00086  -1.02073
   D38        3.13999  -0.00037   0.00000  -0.00990  -0.00990   3.13008
   D39       -0.00368  -0.00041   0.00000  -0.00605  -0.00605  -0.00972
         Item               Value     Threshold  Converged?
 Maximum Force            0.019378     0.000450     NO 
 RMS     Force            0.003012     0.000300     NO 
 Maximum Displacement     0.715618     0.001800     NO 
 RMS     Displacement     0.182147     0.001200     NO 
 Predicted change in Energy=-1.271052D-02
 GradGradGradGradGradGradGradGradGradGradGradGradGradGradGradGradGradGrad

                          Input orientation:                          
 ---------------------------------------------------------------------
 Center     Atomic      Atomic             Coordinates (Angstroms)
 Number     Number       Type             X           Y           Z
 ---------------------------------------------------------------------
      1          7           0        0.008502   -0.014011   -0.500931
      2          6           0        1.058179    0.908482    0.036462
      3          6           0        0.263867   -1.444175   -0.125838
      4          6           0       -1.376744    0.424198   -0.130820
      5          1           0        0.063065    0.023599   -1.524606
      6          1           0        1.023953    0.882499    1.128719
      7          1           0        2.028874    0.568538   -0.331248
      8          1           0        0.849820    1.914224   -0.335417
      9          1           0        0.207782   -1.540055    0.961745
     10          1           0       -0.493801   -2.059235   -0.616403
     11          1           0        1.255225   -1.717264   -0.493897
     12          1           0       -1.520309    1.442097   -0.500006
     13          1           0       -2.084008   -0.250605   -0.618448
     14          1           0       -1.480698    0.384767    0.956722
     15          6           0       -0.351031   -1.615891   -6.572859
     16          6           0       -0.602089   -1.251915   -5.093735
     17          8           0       -1.757455   -1.448265   -4.645587
     18          8           0        0.402806   -0.785606   -4.485972
     19          1           0        0.450855   -2.355261   -6.637113
     20          1           0       -1.251748   -2.010999   -7.042820
     21          1           0       -0.011945   -0.730721   -7.116347
 ---------------------------------------------------------------------
                    Distance matrix (angstroms):
                    1          2          3          4          5
     1  N    0.000000
     2  C    1.497200   0.000000
     3  C    1.500425   2.488427   0.000000
     4  C    1.499305   2.488246   2.486452   0.000000
     5  H    1.025818   2.051879   2.037458   2.043568   0.000000
     6  H    2.119111   1.093102   2.750464   2.749514   2.949771
     7  H    2.109516   1.092255   2.684857   3.414562   2.363359
     8  H    2.110284   1.092347   3.415568   2.686936   2.368041
     9  H    2.123193   2.752210   1.093241   2.750038   2.940731
    10  H    2.109167   3.412070   1.092252   2.680078   2.339472
    11  H    2.110792   2.686011   1.092171   3.412469   2.348236
    12  H    2.111282   2.687219   3.413774   1.092258   2.359876
    13  H    2.109120   3.412585   2.679514   1.092411   2.346537
    14  H    2.121672   2.750828   2.749631   1.093210   2.944594
    15  C    6.289960   7.213977   6.478555   6.834758   5.323933
    16  C    4.795735   5.808849   5.046468   5.295278   3.848122
    17  O    4.727987   5.950095   4.951150   4.902466   3.901435
    18  O    4.078159   4.873588   4.411778   4.857753   3.088676
    19  H    6.582542   7.453688   6.577366   7.307349   5.652175
    20  H    6.955034   7.998460   7.103733   7.329498   6.026525
    21  H    6.654158   7.415850   7.032233   7.210693   5.642888
                    6          7          8          9         10
     6  H    0.000000
     7  H    1.799983   0.000000
     8  H    1.799575   1.789149   0.000000
     9  H    2.561793   3.071543   3.745248   0.000000
    10  H    3.742035   3.653819   4.203885   1.803418   0.000000
    11  H    3.073294   2.418652   3.657482   1.802065   1.786349
    12  H    3.072322   3.659000   2.422293   3.743828   3.650561
    13  H    3.741115   4.203484   3.657039   3.067898   2.408300
    14  H    2.559414   3.742957   3.072486   2.560455   3.069501
    15  C    8.212602   7.028043   7.267010   7.555679   5.974639
    16  C    6.776331   5.737359   5.896954   6.116188   4.550823
    17  O    6.819919   6.084184   6.056548   5.942454   4.266665
    18  O    5.890089   4.662567   4.971519   5.503167   4.171283
    19  H    8.433248   7.127600   7.622273   7.646325   6.101553
    20  H    8.962432   7.903271   8.050665   8.150158   6.471139
    21  H    8.465026   7.203512   7.329351   8.121507   6.651797
                   11         12         13         14         15
    11  H    0.000000
    12  H    4.205376   0.000000
    13  H    3.649258   1.788023   0.000000
    14  H    3.742741   1.800436   1.802455   0.000000
    15  C    6.288411   6.899134   6.349978   7.872317   0.000000
    16  C    4.982436   5.403996   4.819429   6.329195   1.543800
    17  O    5.136646   5.059276   4.214128   5.901056   2.391757
    18  O    4.187035   4.954690   4.629061   5.877097   2.369123
    19  H    6.228415   7.481276   6.861445   8.300902   1.092620
    20  H    7.018517   7.403000   6.712987   8.353728   1.090076
    21  H    6.814384   7.125466   6.837152   8.281062   1.092650
                   16         17         18         19         20
    16  C    0.000000
    17  O    1.254695   0.000000
    18  O    1.263580   2.265242   0.000000
    19  H    2.169811   3.108931   2.663369   0.000000
    20  H    2.190251   2.513788   3.282775   1.783809   0.000000
    21  H    2.170454   3.109071   2.663438   1.755841   1.783712
                   21
    21  H    0.000000
 Symmetry turned off by external request.
 Stoichiometry    C5H13NO2
 Framework group  C1[X(C5H13NO2)]
 Deg. of freedom    57
 Full point group                 C1      NOp   1
 Rotational constants (GHZ):           3.4230679           0.5494660           0.5253740
 Standard basis: 6-31G(d) (6D, 7F)
   146 basis functions,   276 primitive gaussians,   146 cartesian basis functions
    33 alpha electrons       33 beta electrons
       nuclear repulsion energy       365.3513395408 Hartrees.
 NAtoms=   21 NActive=   21 NUniq=   21 SFac= 1.00D+00 NAtFMM=   60 NAOKFM=F Big=F
 Integral buffers will be    131072 words long.
 Raffenetti 2 integral format.
 Two-electron integral symmetry is turned off.
 One-electron integrals computed using PRISM.
 NBasis=   146 RedAO= T EigKep=  4.40D-03  NBF=   146
 NBsUse=   146 1.00D-06 EigRej= -1.00D+00 NBFU=   146
 Initial guess from the checkpoint file:  "Trimethylammonium-Acetate_1.chk"
 B after Tr=     0.054025    0.040088    0.103291
         Rot=    0.999998    0.000279    0.000878   -0.001724 Ang=   0.22 deg.
 ExpMin= 1.61D-01 ExpMax= 5.48D+03 ExpMxC= 8.25D+02 IAcc=3 IRadAn=         5 AccDes= 0.00D+00
 Harris functional with IExCor=  402 and IRadAn=       5 diagonalized for initial guess.
 HarFok:  IExCor=  402 AccDes= 0.00D+00 IRadAn=         5 IDoV= 1 UseB2=F ITyADJ=14
 ICtDFT=  3500011 ScaDFX=  1.000000  1.000000  1.000000  1.000000
 FoFCou: FMM=F IPFlag=           0 FMFlag=      100000 FMFlg1=           0
         NFxFlg=           0 DoJE=T BraDBF=F KetDBF=T FulRan=T
         wScrn=  0.000000 ICntrl=       500 IOpCl=  0 I1Cent=   200000004 NGrid=           0
         NMat0=    1 NMatS0=      1 NMatT0=    0 NMatD0=    1 NMtDS0=    0 NMtDT0=    0
 Symmetry not used in FoFCou.
 Requested convergence on RMS density matrix=1.00D-08 within 128 cycles.
 Requested convergence on MAX density matrix=1.00D-06.
 Requested convergence on             energy=1.00D-06.
 No special actions if energy rises.
 Integral accuracy reduced to 1.0D-05 until final iterations.
 Initial convergence to 1.0D-05 achieved.  Increase integral accuracy.
 SCF Done:  E(RB3LYP) =  -403.476879771     A.U. after   14 cycles
            NFock= 14  Conv=0.15D-08     -V/T= 2.0093
 Calling FoFJK, ICntrl=      2127 FMM=F ISym2X=0 I1Cent= 0 IOpClX= 0 NMat=1 NMatS=1 NMatT=0.
 -------------------------------------------------------------------
 Center     Atomic                   Forces (Hartrees/Bohr)
 Number     Number              X              Y              Z
 -------------------------------------------------------------------
      1        7          -0.000854260   -0.000887930    0.001832500
      2        6           0.000084373   -0.000079558   -0.002139835
      3        6           0.000008000   -0.001134883   -0.002069357
      4        6          -0.000803752   -0.000242558   -0.001984660
      5        1           0.000430285   -0.003813680   -0.017652344
      6        1           0.000348618    0.000315574   -0.001198002
      7        1          -0.000262292    0.001175645    0.001076949
      8        1           0.001160839   -0.000357235    0.001235795
      9        1           0.000042277    0.000236109   -0.001150637
     10        1           0.001431325   -0.000314835    0.000200531
     11        1          -0.001279387   -0.000921372    0.000581575
     12        1          -0.001106759   -0.000900194    0.000963043
     13        1          -0.000163180    0.001323934    0.000295407
     14        1           0.000005356    0.000115776   -0.001214384
     15        6           0.000170005    0.000234569    0.000581690
     16        6          -0.010064973   -0.001160659    0.004136507
     17        8           0.001581946    0.001124843    0.004751389
     18        8           0.007542782    0.006393316    0.016891751
     19        1           0.002507910   -0.002265214   -0.001207198
     20        1          -0.001959490   -0.001031898   -0.001550075
     21        1           0.001180379    0.002190250   -0.002380645
 -------------------------------------------------------------------
 Cartesian Forces:  Max     0.017652344 RMS     0.003837301

 GradGradGradGradGradGradGradGradGradGradGradGradGradGradGradGradGradGrad
 Berny optimization.
 Using GEDIIS/GDIIS optimizer.
 FormGI is forming the generalized inverse of G from B-inverse, IUseBI=4.
 Internal  Forces:  Max     0.026648664 RMS     0.003934335
 Search for a local minimum.
 Step number   3 out of a maximum of  104
 All quantities printed in internal units (Hartrees-Bohrs-Radians)
 Mixed Optimization -- RFO/linear search
 Update second derivatives using D2CorX and points    2    3
 DE= -1.30D-02 DEPred=-1.27D-02 R= 1.02D+00
 TightC=F SS=  1.41D+00  RLast= 5.07D-01 DXNew= 8.4853D-01 1.5201D+00
 Trust test= 1.02D+00 RLast= 5.07D-01 DXMaxT set to 8.49D-01
 ITU=  1  1  0
 Use linear search instead of GDIIS.
     Eigenvalues ---   -0.01405   0.00229   0.00230   0.00340   0.00341
     Eigenvalues ---    0.00342   0.00645   0.01215   0.02979   0.03542
     Eigenvalues ---    0.04526   0.04655   0.05903   0.05931   0.05936
     Eigenvalues ---    0.05940   0.06064   0.06088   0.06908   0.07261
     Eigenvalues ---    0.11286   0.12468   0.14961   0.14990   0.15948
     Eigenvalues ---    0.16000   0.16000   0.16000   0.16000   0.16000
     Eigenvalues ---    0.16000   0.16000   0.16000   0.16000   0.16000
     Eigenvalues ---    0.20973   0.24808   0.24914   0.26417   0.31415
     Eigenvalues ---    0.32149   0.32156   0.32970   0.34425   0.34429
     Eigenvalues ---    0.34438   0.34447   0.34449   0.34453   0.34455
     Eigenvalues ---    0.34460   0.34540   0.34776   0.34991   0.42390
     Eigenvalues ---    0.78871   0.79920
 RFO step:  Lambda=-4.04504808D-02 EMin=-1.40477808D-02
 Skip linear search -- no minimum in search direction.
 Maximum step size (   0.849) exceeded in Quadratic search.
    -- Step size scaled by   0.851
 Iteration  1 RMS(Cart)=  0.19882869 RMS(Int)=  0.06276126
 Iteration  2 RMS(Cart)=  0.18906675 RMS(Int)=  0.03894541
 Iteration  3 RMS(Cart)=  0.05615189 RMS(Int)=  0.01780180
 Iteration  4 RMS(Cart)=  0.03710790 RMS(Int)=  0.00013922
 Iteration  5 RMS(Cart)=  0.00007465 RMS(Int)=  0.00012023
 Iteration  6 RMS(Cart)=  0.00000002 RMS(Int)=  0.00012023
 Variable       Old X    -DE/DX   Delta X   Delta X   Delta X     New X
                                 (Linear)    (Quad)   (Total)
    R1        2.82930   0.00122   0.00000   0.00669   0.00669   2.83599
    R2        2.83539   0.00146   0.00000   0.00924   0.00924   2.84463
    R3        2.83327   0.00152   0.00000   0.00944   0.00944   2.84271
    R4        1.93852  -0.00343   0.00000  -0.01645  -0.01645   1.92206
    R5        2.06566  -0.00122   0.00000  -0.00715  -0.00715   2.05851
    R6        2.06406  -0.00096   0.00000  -0.00546  -0.00546   2.05860
    R7        2.06424  -0.00097   0.00000  -0.00548  -0.00548   2.05876
    R8        2.06593  -0.00117   0.00000  -0.00694  -0.00694   2.05899
    R9        2.06406  -0.00091   0.00000  -0.00498  -0.00498   2.05908
   R10        2.06390  -0.00113   0.00000  -0.00651  -0.00651   2.05739
   R11        2.06407  -0.00102   0.00000  -0.00580  -0.00580   2.05827
   R12        2.06436  -0.00084   0.00000  -0.00450  -0.00450   2.05986
   R13        2.06587  -0.00121   0.00000  -0.00715  -0.00715   2.05871
   R14        5.83675  -0.02168   0.00000  -0.73677  -0.73677   5.09998
   R15        2.91736   0.00488   0.00000   0.03153   0.03153   2.94889
   R16        2.06475   0.00344   0.00000   0.01922   0.01922   2.08397
   R17        2.05994   0.00266   0.00000   0.01484   0.01484   2.07479
   R18        2.06481   0.00332   0.00000   0.01841   0.01841   2.08322
   R19        2.37103   0.00006   0.00000   0.00086   0.00086   2.37189
   R20        2.38782   0.00349   0.00000   0.01027   0.01027   2.39809
    A1        1.95869   0.00040   0.00000   0.01168   0.01163   1.97032
    A2        1.95959   0.00033   0.00000   0.01268   0.01260   1.97218
    A3        1.87371   0.00068   0.00000   0.01678   0.01697   1.89068
    A4        1.95425   0.00021   0.00000   0.00340   0.00295   1.95720
    A5        1.84976  -0.00118   0.00000  -0.03069  -0.03079   1.81897
    A6        1.85956  -0.00058   0.00000  -0.01769  -0.01790   1.84166
    A7        1.89870  -0.00007   0.00000  -0.00159  -0.00159   1.89711
    A8        1.88648   0.00162   0.00000   0.01976   0.01960   1.90608
    A9        1.88743   0.00182   0.00000   0.02211   0.02195   1.90938
   A10        1.93566  -0.00093   0.00000  -0.01225  -0.01224   1.92341
   A11        1.93488  -0.00103   0.00000  -0.01351  -0.01351   1.92136
   A12        1.91927  -0.00125   0.00000  -0.01259  -0.01291   1.90635
   A13        1.90029  -0.00062   0.00000  -0.00660  -0.00659   1.89370
   A14        1.88221   0.00116   0.00000   0.01193   0.01188   1.89409
   A15        1.88449   0.00164   0.00000   0.01848   0.01843   1.90292
   A16        1.94103  -0.00021   0.00000  -0.00038  -0.00037   1.94066
   A17        1.93895  -0.00049   0.00000  -0.00503  -0.00501   1.93394
   A18        1.91504  -0.00136   0.00000  -0.01714  -0.01725   1.89779
   A19        1.88639   0.00185   0.00000   0.02134   0.02127   1.90766
   A20        1.88331   0.00111   0.00000   0.01160   0.01153   1.89484
   A21        1.89958  -0.00032   0.00000  -0.00337  -0.00337   1.89621
   A22        1.91738  -0.00128   0.00000  -0.01523  -0.01538   1.90200
   A23        1.93624  -0.00084   0.00000  -0.01013  -0.01012   1.92612
   A24        1.93930  -0.00038   0.00000  -0.00273  -0.00272   1.93657
   A25        2.83386  -0.00734   0.00000  -0.07696  -0.07696   2.75691
   A26        1.91265   0.00118   0.00000   0.01251   0.01247   1.92512
   A27        1.94351   0.00022   0.00000   0.00274   0.00272   1.94623
   A28        1.91350   0.00099   0.00000   0.00966   0.00962   1.92312
   A29        1.91325  -0.00075   0.00000  -0.00782  -0.00785   1.90540
   A30        1.86627  -0.00100   0.00000  -0.01030  -0.01036   1.85591
   A31        1.91305  -0.00069   0.00000  -0.00730  -0.00731   1.90574
   A32        2.04324   0.00482   0.00000   0.04316   0.04312   2.08636
   A33        2.00260   0.00243   0.00000   0.02318   0.02314   2.02574
   A34        2.23734  -0.00724   0.00000  -0.06632  -0.06636   2.17098
   A35        2.06050  -0.02665   0.00000  -0.39488  -0.39488   1.66562
    D1       -1.11096  -0.00054   0.00000  -0.01438  -0.01438  -1.12534
    D2        0.99223  -0.00075   0.00000  -0.01845  -0.01855   0.97369
    D3        3.06941  -0.00032   0.00000  -0.01016  -0.01008   3.05933
    D4        1.10850   0.00035   0.00000   0.01030   0.01029   1.11880
    D5       -3.07149   0.00014   0.00000   0.00623   0.00613  -3.06536
    D6       -0.99431   0.00057   0.00000   0.01452   0.01460  -0.97971
    D7       -3.13663   0.00025   0.00000   0.00620   0.00622  -3.13041
    D8       -1.03344   0.00004   0.00000   0.00213   0.00205  -1.03138
    D9        1.04374   0.00047   0.00000   0.01042   0.01052   1.05426
   D10        1.11004   0.00028   0.00000   0.01088   0.01092   1.12096
   D11       -3.06507   0.00036   0.00000   0.01363   0.01364  -3.05143
   D12       -0.99687   0.00027   0.00000   0.00986   0.00994  -0.98693
   D13       -1.11228  -0.00067   0.00000  -0.01867  -0.01865  -1.13093
   D14        0.99580  -0.00059   0.00000  -0.01591  -0.01593   0.97986
   D15        3.06400  -0.00068   0.00000  -0.01968  -0.01963   3.04437
   D16       -3.13308   0.00061   0.00000   0.01871   0.01865  -3.11443
   D17       -1.02501   0.00068   0.00000   0.02146   0.02137  -1.00363
   D18        1.04320   0.00059   0.00000   0.01769   0.01767   1.06087
   D19        0.99581  -0.00032   0.00000  -0.01113  -0.01121   0.98460
   D20        3.06842  -0.00023   0.00000  -0.01112  -0.01113   3.05730
   D21       -1.10854  -0.00022   0.00000  -0.00953  -0.00958  -1.11812
   D22       -3.06554   0.00067   0.00000   0.01789   0.01787  -3.04768
   D23       -0.99293   0.00077   0.00000   0.01790   0.01795  -0.97497
[...]
 Iteration  4 RMS(Cart)=  0.00115909 RMS(Int)=  0.18037288
 Iteration  5 RMS(Cart)=  0.00075727 RMS(Int)=  0.15926652
 New curvilinear step failed:  FormB failed.
 ITry= 5 IFail=2 DXMaxC= 2.21D-02 DCOld= 1.00D+10 DXMaxT= 2.38D-01 DXLimC= 3.00D+00 Rises=F
 Iteration  1 RMS(Cart)=  0.00051094 RMS(Int)=  0.28350559
 Iteration  2 RMS(Cart)=  0.00246700 RMS(Int)=  0.24491380
 Iteration  3 RMS(Cart)=  0.00090568 RMS(Int)=  0.21482061
 Iteration  4 RMS(Cart)=  0.00115909 RMS(Int)=  0.18037288
 Iteration  5 RMS(Cart)=  0.00075727 RMS(Int)=  0.15926652
 New curvilinear step failed:  FormB failed.
 ITry= 6 IFail=2 DXMaxC= 2.21D-02 DCOld= 1.00D+10 DXMaxT= 2.38D-01 DXLimC= 3.00D+00 Rises=F
 Iteration  1 RMS(Cart)=  0.00051094 RMS(Int)=  0.28350559
 Iteration  2 RMS(Cart)=  0.00246700 RMS(Int)=  0.24491380
 Iteration  3 RMS(Cart)=  0.00090568 RMS(Int)=  0.21482061
 Iteration  4 RMS(Cart)=  0.00115909 RMS(Int)=  0.18037288
 Iteration  5 RMS(Cart)=  0.00075727 RMS(Int)=  0.15926652
 New curvilinear step failed:  FormB failed.
 ITry= 7 IFail=2 DXMaxC= 2.21D-02 DCOld= 1.00D+10 DXMaxT= 2.38D-01 DXLimC= 3.00D+00 Rises=F
 Iteration  1 RMS(Cart)=  0.00051094 RMS(Int)=  0.28350559
 Iteration  2 RMS(Cart)=  0.00246700 RMS(Int)=  0.24491380
 Iteration  3 RMS(Cart)=  0.00090568 RMS(Int)=  0.21482061
 Iteration  4 RMS(Cart)=  0.00115909 RMS(Int)=  0.18037288
 Iteration  5 RMS(Cart)=  0.00075727 RMS(Int)=  0.15926652
 New curvilinear step failed:  FormB failed.
 ITry= 8 IFail=2 DXMaxC= 2.21D-02 DCOld= 1.00D+10 DXMaxT= 2.38D-01 DXLimC= 3.00D+00 Rises=F
 Iteration  1 RMS(Cart)=  0.00051094 RMS(Int)=  0.28350559
 Iteration  2 RMS(Cart)=  0.00246700 RMS(Int)=  0.24491380
 Iteration  3 RMS(Cart)=  0.00090568 RMS(Int)=  0.21482061
 Iteration  4 RMS(Cart)=  0.00115909 RMS(Int)=  0.18037288
 Iteration  5 RMS(Cart)=  0.00075727 RMS(Int)=  0.15926652
 New curvilinear step failed:  FormB failed.
 ITry= 9 IFail=2 DXMaxC= 2.21D-02 DCOld= 1.00D+10 DXMaxT= 2.38D-01 DXLimC= 3.00D+00 Rises=F
 Iteration  1 RMS(Cart)=  0.00051094 RMS(Int)=  0.28350559
 Iteration  2 RMS(Cart)=  0.00246700 RMS(Int)=  0.24491380
 Iteration  3 RMS(Cart)=  0.00090568 RMS(Int)=  0.21482061
 Iteration  4 RMS(Cart)=  0.00115909 RMS(Int)=  0.18037288
 Iteration  5 RMS(Cart)=  0.00075727 RMS(Int)=  0.15926652
 New curvilinear step failed:  FormB failed.
 ITry=10 IFail=2 DXMaxC= 2.21D-02 DCOld= 1.00D+10 DXMaxT= 2.38D-01 DXLimC= 3.00D+00 Rises=F
 Variable       Old X    -DE/DX   Delta X   Delta X   Delta X     New X
                                 (Linear)    (Quad)   (Total)
    R1        2.77905  -0.00063   0.00073   0.00000   0.00210   2.78114
    R2        2.76898   0.00004  -0.00028   0.00000  -0.00065   2.76833
    R3        2.77820  -0.00025  -0.00005   0.00000   0.00023   2.77843
    R4        3.01568   0.00559   0.00000   0.00000   0.00000   3.01568
    R5        2.08238   0.00038   0.00080   0.00000  -0.00006   2.08233
    R6        2.06634   0.00072  -0.00011   0.00000   0.01092   2.07726
    R7        2.06398   0.00021   0.00091   0.00000  -0.00788   2.05610
    R8        2.08228   0.00084   0.00074   0.00000   0.00279   2.08507
    R9        2.06832   0.00006   0.00020   0.00000   0.01277   2.08110
   R10        2.06546   0.00085  -0.00111   0.00000  -0.01491   2.05055
   R11        2.06627  -0.00018   0.00142   0.00000   0.01322   2.07950
   R12        2.06609   0.00088  -0.00108   0.00000  -0.01474   2.05135
   R13        2.08167   0.00050   0.00039   0.00000   0.00190   2.08357
   R14        1.95271   0.00319   0.00000   0.00000   0.00000   1.95271
   R15        2.86067   0.00009   0.00043   0.00000   0.00108   2.86175
   R16        2.07900  -0.00313  -0.00213   0.00000  -0.00199   2.07701
   R17        2.07186  -0.00387  -0.00090   0.00000  -0.00028   2.07158
   R18        2.07945  -0.00330  -0.00013   0.00000  -0.00042   2.07903
   R19        2.32130  -0.00890  -0.00194   0.00000   0.00110   2.32241
   R20        2.52780  -0.00806  -0.00088   0.00000  -0.00367   2.52412
    A1        1.95117  -0.00016  -0.00062   0.00000  -0.00096   1.95021
    A2        1.92872   0.00041  -0.00039   0.00000  -0.00012   1.92860
    A3        1.85591  -0.00035   0.00012   0.00000   0.00033   1.85625
    A4        1.94854  -0.00000   0.00080   0.00000   0.00127   1.94981
    A5        1.96097   0.00024   0.00009   0.00000  -0.00029   1.96067
    A6        1.81179  -0.00014   0.00001   0.00000  -0.00022   1.81158
    A7        1.95240  -0.00017   0.00087   0.00000   0.00175   1.95415
    A8        1.90888  -0.00023  -0.00094   0.00000  -0.00814   1.90074
    A9        1.89543   0.00003   0.00314   0.00000   0.00801   1.90345
   A10        1.89326   0.00029   0.00067   0.00000  -0.00455   1.88871
   A11        1.91358   0.00019  -0.00346   0.00000   0.00264   1.91623
   A12        1.89968  -0.00011  -0.00035   0.00000   0.00010   1.89978
   A13        1.95957  -0.00025  -0.00116   0.00000  -0.00155   1.95802
   A14        1.91068   0.00012  -0.00318   0.00000  -0.00928   1.90140
   A15        1.91564  -0.00062   0.00301   0.00000   0.01036   1.92601
   A16        1.89011   0.00030   0.00155   0.00000  -0.00821   1.88190
   A17        1.89207   0.00042  -0.00042   0.00000   0.00678   1.89886
   A18        1.89451   0.00006   0.00025   0.00000   0.00174   1.89625
   A19        1.88965   0.00113  -0.00088   0.00000  -0.00616   1.88350
   A20        1.91693  -0.00149   0.00106   0.00000   0.00735   1.92428
   A21        1.95224   0.00031  -0.00001   0.00000  -0.00107   1.95117
   A22        1.89694   0.00019  -0.00061   0.00000   0.00048   1.89742
   A23        1.91752  -0.00087   0.00013   0.00000  -0.00933   1.90819
   A24        1.88995   0.00072   0.00031   0.00000   0.00861   1.89855
   A25        3.14159  -0.00105   0.00000   0.00000   0.00000   3.14159
   A26        1.91783   0.00043   0.00063   0.00000  -0.00738   1.91045
   A27        1.91743   0.00019   0.00002   0.00000   0.00137   1.91880
   A28        1.91461   0.00057   0.00035   0.00000   0.00717   1.92178
   A29        1.92214  -0.00047  -0.00000   0.00000  -0.00027   1.92187
   A30        1.87010  -0.00035   0.00004   0.00000   0.00032   1.87042
   A31        1.92123  -0.00038  -0.00102   0.00000  -0.00125   1.91998
   A32        2.14926   0.00216   0.00073   0.00000  -0.00210   2.14716
   A33        1.96043   0.00057  -0.00021   0.00000   0.00112   1.96155
   A34        2.17346  -0.00272  -0.00053   0.00000   0.00003   2.17349
   A35        1.93746  -0.00669  -0.00020   0.00000   0.00028   1.93775
    D1       -1.12286  -0.00008   0.00266   0.00000   0.00786  -1.11500
    D2        0.97505   0.00002   0.00343   0.00000  -0.00212   0.97293
    D3        3.04599  -0.00024   0.00431   0.00000  -0.00204   3.04395
    D4        1.05889   0.00010   0.00296   0.00000   0.00872   1.06761
    D5       -3.12639   0.00020   0.00373   0.00000  -0.00126  -3.12765
    D6       -1.05544  -0.00005   0.00461   0.00000  -0.00118  -1.05663
    D7        3.01427  -0.00005   0.00285   0.00000   0.00858   3.02285
    D8       -1.17101   0.00005   0.00362   0.00000  -0.00140  -1.17240
    D9        0.89993  -0.00020   0.00450   0.00000  -0.00132   0.89861
   D10        1.09940   0.00011  -0.00030   0.00000   0.00819   1.10759
   D11       -3.08400   0.00041  -0.00127   0.00000  -0.00932  -3.09331
   D12       -1.00626   0.00018  -0.00108   0.00000  -0.00662  -1.01288
   D13       -1.07131  -0.00030   0.00007   0.00000   0.00811  -1.06320
   D14        1.02848  -0.00001  -0.00090   0.00000  -0.00939   1.01908
   D15        3.10621  -0.00024  -0.00070   0.00000  -0.00670   3.09951
   D16       -3.09863  -0.00028  -0.00052   0.00000   0.00775  -3.09088
   D17       -0.99884   0.00002  -0.00149   0.00000  -0.00976  -1.00860
   D18        1.07889  -0.00021  -0.00129   0.00000  -0.00707   1.07183
   D19        1.06045  -0.00024   0.00639   0.00000  -0.00092   1.05953
   D20        3.12931  -0.00019   0.00574   0.00000   0.00020   3.12951
   D21       -1.05483  -0.00010   0.00683   0.00000   0.01539  -1.03944
   D22       -3.03949  -0.00014   0.00589   0.00000  -0.00133  -3.04082
   D23       -0.97063  -0.00010   0.00523   0.00000  -0.00021  -0.97084
   D24        1.12841  -0.00000   0.00632   0.00000   0.01499   1.14340
   D25       -0.92313   0.00006   0.00642   0.00000  -0.00114  -0.92428
   D26        1.14573   0.00010   0.00576   0.00000  -0.00002   1.14571
   D27       -3.03841   0.00020   0.00686   0.00000   0.01517  -3.02324
   D28       -2.44456  -0.00066   1.52970   0.00000   0.86385  -1.58070
   D29        1.69874  -0.00038   1.53033   0.00000   0.86500   2.56374
   D30       -0.40927  -0.00041   1.52931   0.00000   0.86376   0.45449
   D31        1.53162  -0.00145  -1.53130   0.00000  -0.86981   0.66181
   D32       -2.11198   0.00039  -0.00104   0.00000  -0.01793  -2.12991
   D33        1.03790  -0.00020   0.00585   0.00000   0.01933   1.05724
   D34        0.00539   0.00021  -0.00063   0.00000  -0.02211  -0.01672
   D35       -3.12792  -0.00039   0.00626   0.00000   0.01515  -3.11277
   D36        2.11956   0.00023  -0.00166   0.00000  -0.01817   2.10139
   D37       -1.01374  -0.00037   0.00522   0.00000   0.01909  -0.99465
   D38        3.13074   0.00003  -0.00340   0.00000  -0.01127   3.11947
   D39       -0.00243  -0.00061   0.00360   0.00000   0.02667   0.02424
         Item               Value     Threshold  Converged?
 Maximum Force            0.008900     0.000450     NO 
 RMS     Force            0.001772     0.000300     NO 
 Maximum Displacement     0.022070     0.001800     NO 
 RMS     Displacement     0.004836     0.001200     NO 
 Predicted change in Energy=-3.922334D-04
 GradGradGradGradGradGradGradGradGradGradGradGradGradGradGradGradGradGrad

                          Input orientation:                          
 ---------------------------------------------------------------------
 Center     Atomic      Atomic             Coordinates (Angstroms)
 Number     Number       Type             X           Y           Z
 ---------------------------------------------------------------------
      1          7           0        0.002249   -0.584250   -0.908104
      2          6           0        0.651978    0.734546   -0.840417
      3          6           0        0.657814   -1.557717   -0.031382
      4          6           0       -1.433349   -0.466739   -0.613171
      5          1           0        0.040884   -1.026085   -2.441062
      6          1           0        0.569868    1.183470    0.162555
      7          1           0        1.718802    0.618624   -1.078704
      8          1           0        0.196764    1.393128   -1.577221
      9          1           0        0.584913   -1.275421    1.032772
     10          1           0        0.168331   -2.536476   -0.154806
     11          1           0        1.705491   -1.657985   -0.295522
     12          1           0       -1.881111    0.195857   -1.369084
     13          1           0       -1.910770   -1.439609   -0.676126
     14          1           0       -1.612009   -0.048002    0.391031
     15          6           0       -0.395450   -0.735683   -5.686043
     16          6           0       -0.445055   -0.360723   -4.219665
     17          8           0       -0.864352    0.722887   -3.819247
     18          8           0        0.065901   -1.312182   -3.433683
     19          1           0       -0.981532   -1.650924   -5.850002
     20          1           0       -0.796436    0.082917   -6.295002
     21          1           0        0.640168   -0.955234   -5.985517
 ---------------------------------------------------------------------
                    Distance matrix (angstroms):
                    1          2          3          4          5
     1  N    0.000000
     2  C    1.471718   0.000000
     3  C    1.464939   2.430853   0.000000
     4  C    1.470283   2.417295   2.429336   0.000000
     5  H    1.595830   2.456690   2.543579   2.414004   0.000000
     6  H    2.143207   1.101920   2.749446   2.708840   3.455543
     7  H    2.102990   1.099241   2.638000   3.366124   2.715971
     8  H    2.096564   1.088040   3.362986   2.654387   2.573541
     9  H    2.141077   2.748327   1.103371   2.726989   3.525004
    10  H    2.099101   3.376916   1.101270   2.656932   2.743081
    11  H    2.104565   2.670394   1.085104   3.372281   2.788109
    12  H    2.090003   2.643145   3.363125   1.100423   2.517210
    13  H    2.108339   3.364762   2.650900   1.085527   2.663636
    14  H    2.140360   2.693415   2.758581   1.102580   3.421908
    15  C    4.796854   5.170955   5.810362   5.184940   3.287039
    16  C    3.349102   3.717850   4.493420   3.740958   1.960171
    17  O    3.306715   3.342577   4.676117   3.466684   2.403695
    18  O    2.629161   3.355237   3.462124   3.304212   1.033331
    19  H    5.150532   5.784009   6.045865   5.388027   3.613396
    20  H    5.486500   5.681111   6.636223   5.743779   4.096809
    21  H    5.130760   5.415491   5.984565   5.779291   3.595459
                    6          7          8          9         10
     6  H    0.000000
     7  H    1.783206   0.000000
     8  H    1.791643   1.779038   0.000000
     9  H    2.608380   3.054741   3.752849   0.000000
    10  H    3.754989   3.634860   4.179218   1.781611   0.000000
    11  H    3.094081   2.407592   3.637073   1.779442   1.776065
    12  H    3.054275   3.636265   2.407144   3.743640   3.624959
    13  H    3.706412   4.191919   3.643909   3.029145   2.407811
    14  H    2.515812   3.701191   3.036862   2.597085   3.108062
    15  C    6.230657   5.247074   4.665295   6.811380   5.844253
    16  C    4.755886   3.937897   3.235805   5.430064   4.651153
    17  O    4.257215   3.767510   2.569411   5.443867   5.011788
    18  O    4.406267   3.464971   3.283639   4.496659   3.501489
    19  H    6.825795   5.933627   5.376922   7.068757   5.877214
    20  H    6.691641   5.815769   4.996055   7.579543   6.744925
    21  H    6.509822   5.264722   5.014428   7.025806   6.059716
                   11         12         13         14         15
    11  H    0.000000
    12  H    4.177676   0.000000
    13  H    3.642786   1.776462   0.000000
    14  H    3.750894   1.797189   1.778947   0.000000
    15  C    5.858524   4.659516   5.281191   6.235684   0.000000
    16  C    4.659037   3.240038   3.983589   4.766350   1.514372
    17  O    4.968831   2.704599   3.956083   4.345078   2.415000
    18  O    3.557511   3.213660   3.395230   4.363711   2.370300
    19  H    6.170282   4.929348   5.260906   6.474362   1.099109
    20  H    6.729349   5.045190   5.927191   6.736865   1.096233
    21  H    5.831364   5.384544   5.910291   6.823177   1.100178
                   16         17         18         19         20
    16  C    0.000000
    17  O    1.228966   0.000000
    18  O    1.335709   2.270581   0.000000
    19  H    2.147190   3.126128   2.655270   0.000000
    20  H    2.151119   2.558034   3.298041   1.799580   0.000000
    21  H    2.156243   3.126083   2.639896   1.769819   1.799269
                   21
    21  H    0.000000
 Symmetry turned off by external request.
 Stoichiometry    C5H13NO2
 Framework group  C1[X(C5H13NO2)]
 Deg. of freedom    57
 Full point group                 C1      NOp   1
 Rotational constants (GHZ):           3.5483230           0.9599377           0.8982696
 Standard basis: 6-31G(d) (6D, 7F)
   146 basis functions,   276 primitive gaussians,   146 cartesian basis functions
    33 alpha electrons       33 beta electrons
       nuclear repulsion energy       406.7799829695 Hartrees.
 NAtoms=   21 NActive=   21 NUniq=   21 SFac= 1.00D+00 NAtFMM=   60 NAOKFM=F Big=F
 Integral buffers will be    131072 words long.
 Raffenetti 2 integral format.
 Two-electron integral symmetry is turned off.
 One-electron integrals computed using PRISM.
 NBasis=   146 RedAO= T EigKep=  4.52D-03  NBF=   146
 NBsUse=   146 1.00D-06 EigRej= -1.00D+00 NBFU=   146
 Initial guess from the checkpoint file:  "Trimethylammonium-Acetate_1.chk"
 B after Tr=     0.000060   -0.000809    0.000064
         Rot=    1.000000   -0.000003   -0.000201   -0.000702 Ang=  -0.08 deg.
 ExpMin= 1.61D-01 ExpMax= 5.48D+03 ExpMxC= 8.25D+02 IAcc=3 IRadAn=         5 AccDes= 0.00D+00
 Harris functional with IExCor=  402 and IRadAn=       5 diagonalized for initial guess.
 HarFok:  IExCor=  402 AccDes= 0.00D+00 IRadAn=         5 IDoV= 1 UseB2=F ITyADJ=14
 ICtDFT=  3500011 ScaDFX=  1.000000  1.000000  1.000000  1.000000
 FoFCou: FMM=F IPFlag=           0 FMFlag=      100000 FMFlg1=           0
         NFxFlg=           0 DoJE=T BraDBF=F KetDBF=T FulRan=T
         wScrn=  0.000000 ICntrl=       500 IOpCl=  0 I1Cent=   200000004 NGrid=           0
         NMat0=    1 NMatS0=      1 NMatT0=    0 NMatD0=    1 NMtDS0=    0 NMtDT0=    0
 Symmetry not used in FoFCou.
 Requested convergence on RMS density matrix=1.00D-08 within 128 cycles.
 Requested convergence on MAX density matrix=1.00D-06.
 Requested convergence on             energy=1.00D-06.
 No special actions if energy rises.
 Integral accuracy reduced to 1.0D-05 until final iterations.
 Initial convergence to 1.0D-05 achieved.  Increase integral accuracy.
 SCF Done:  E(RB3LYP) =  -403.576567211     A.U. after   10 cycles
            NFock= 10  Conv=0.45D-08     -V/T= 2.0095
 Calling FoFJK, ICntrl=      2127 FMM=F ISym2X=0 I1Cent= 0 IOpClX= 0 NMat=1 NMatS=1 NMatT=0.
 -------------------------------------------------------------------
 Center     Atomic                   Forces (Hartrees/Bohr)
 Number     Number              X              Y              Z
 -------------------------------------------------------------------
      1        7          -0.000556547    0.002817900    0.006101840
      2        6           0.005381670   -0.003620074    0.001175452
      3        6          -0.010053046   -0.004661640    0.002518443
      4        6           0.001007176    0.009903853   -0.003584947
      5        1           0.000249518    0.001834690   -0.002872363
      6        1          -0.000628802   -0.000064852    0.000390932
      7        1          -0.002793474    0.000750762    0.000133817
      8        1          -0.001354292    0.001120796   -0.002296951
      9        1           0.000710188    0.000606491   -0.000121741
     10        1           0.002649686    0.003120029    0.000255417
     11        1           0.005499560    0.000154376   -0.002201050
     12        1           0.001006214   -0.002624995    0.003548001
     13        1          -0.001398785   -0.005763454   -0.000544749
     14        1          -0.000245306   -0.000247920   -0.000058575
     15        6          -0.001598147   -0.001633931   -0.001849462
     16        6           0.005131399    0.008761275    0.005023226
     17        8           0.001010069   -0.009968590   -0.000718468
     18        8          -0.003491871   -0.000182754   -0.007296565
     19        1           0.001363414    0.001948671   -0.000881474
     20        1           0.001157128   -0.002996359    0.002028314
     21        1          -0.003045749    0.000745725    0.001250903
 -------------------------------------------------------------------
 Cartesian Forces:  Max     0.010053046 RMS     0.003571311

 GradGradGradGradGradGradGradGradGradGradGradGradGradGradGradGradGradGrad
 Berny optimization.
 Using GEDIIS/GDIIS optimizer.
 Bend failed for angle     1 -     5 -    18
 Tors failed for dihedral     2 -     1 -     5 -    18
 Tors failed for dihedral     3 -     1 -     5 -    18
 Tors failed for dihedral     4 -     1 -     5 -    18
 Tors failed for dihedral     1 -     5 -    18 -    16
 FormBX had a problem.
 Error termination via Lnk1e in /opt/software/Gaussian16/bin/avx/g16/l103.exe at Mon Sep 30 02:11:43 2019.
 Job cpu time:       0 days  1 hours 26 minutes  4.1 seconds.
 Elapsed time:       0 days  0 hours 11 minutes  1.5 seconds.
 File lengths (MBytes):  RWF=     16 Int=      0 D2E=      0 Chk=      3 Scr=      1
