 Entering Gaussian System, Link 0=g16
 Initial command:
 /opt/software/Gaussian16/bin/avx/g16/l1.exe "/scratch/Gau-45263.inp" -scrdir="/scratch/"
 Entering Link 1 = /opt/software/Gaussian16/bin/avx/g16/l1.exe PID=     45264.
  
 Copyright (c) 1988-2019, Gaussian, Inc.  All Rights Reserved.
  
 This is part of the Gaussian(R) 16 program.  It is based on
 the Gaussian(R) 09 system (copyright 2009, Gaussian, Inc.),
 the Gaussian(R) 03 system (copyright 2003, Gaussian, Inc.),
 the Gaussian(R) 98 system (copyright 1998, Gaussian, Inc.),
 the Gaussian(R) 94 system (copyright 1995, Gaussian, Inc.),
 the Gaussian 92(TM) system (copyright 1992, Gaussian, Inc.),
 the Gaussian 90(TM) system (copyright 1990, Gaussian, Inc.),
 the Gaussian 88(TM) system (copyright 1988, Gaussian, Inc.),
 the Gaussian 86(TM) system (copyright 1986, Carnegie Mellon
 University), and the Gaussian 82(TM) system (copyright 1983,
 Carnegie Mellon University). Gaussian is a federally registered
 trademark of Gaussian, Inc.
  
 This software contains proprietary and confidential information,
 including trade secrets, belonging to Gaussian, Inc.
  
 This software is provided under written license and may be
 used, copied, transmitted, or stored only in accord with that
 written license.
  
 The following legend is applicable only to US Government
 contracts under FAR:
  
                    RESTRICTED RIGHTS LEGEND
  
 Use, reproduction and disclosure by the US Government is
 subject to restrictions as set forth in subparagraphs (a)
 and (c) of the Commercial Computer Software - Restricted
 Rights clause in FAR 52.227-19.
  
 Gaussian, Inc.
 340 Quinnipiac St., Bldg. 40, Wallingford CT 06492
  
  
 ---------------------------------------------------------------
 Warning -- This program may not be used in any manner that
 competes with the business of Gaussian, Inc. or will provide
 assistance to any competitor of Gaussian, Inc.  The licensee
 of this program is prohibited from giving any competitor of
 Gaussian, Inc. access to this program.  By using this program,
 the user acknowledges that Gaussian, Inc. is engaged in the
 business of creating and licensing software in the field of
 computational chemistry and represents and warrants to the
 licensee that it is not a competitor of Gaussian, Inc. and that
 it will not use this program in any manner prohibited above.
 ---------------------------------------------------------------
  

 Cite this work as:
 Gaussian 16, Revision C.01,
 M. J. Frisch, G. W. Trucks, H. B. Schlegel, G. E. Scuseria, 
 M. A. Robb, J. R. Cheeseman, G. Scalmani, V. Barone, 
 G. A. Petersson, H. Nakatsuji, X. Li, M. Caricato, A. V. Marenich, 
 J. Bloino, B. G. Janesko, R. Gomperts, B. Mennucci, H. P. Hratchian, 
 J. V. Ortiz, A. F. Izmaylov, J. L. Sonnenberg, D. Williams-Young, 
 F. Ding, F. Lipparini, F. Egidi, J. Goings, B. Peng, A. Petrone, 
 T. Henderson, D. Ranasinghe, V. G. Zakrzewski, J. Gao, N. Rega, 
 G. Zheng, W. Liang, M. Hada, M. Ehara, K. Toyota, R. Fukuda, 
 J. Hasegawa, M. Ishida, T. Nakajima, Y. Honda, O. Kitao, H. Nakai, 
 T. Vreven, K. Throssell, J. A. Montgomery, Jr., J. E. Peralta, 
 F. Ogliaro, M. J. Bearpark, J. J. Heyd, E. N. Brothers, K. N. Kudin, 
 V. N. Staroverov, T. A. Keith, R. Kobayashi, J. Normand, 
 K. Raghavachari, A. P. Rendell, J. C. Burant, S. S. Iyengar, 
 J. Tomasi, M. Cossi, J. M. Millam, M. Klene, C. Adamo, R. Cammi, 
 J. W. Ochterski, R. L. Martin, K. Morokuma, O. Farkas, 
 J. B. Foresman, and D. J. Fox, Gaussian, Inc., Wallingford CT, 2019.
 
 ******************************************
 Gaussian 16:  ES64L-G16RevC.01  3-Jul-2019
                30-Sep-2019 
 ******************************************
 %chk=Acetonitrile-Water_2.chk
 %nproc=8
 Will use up to    8 processors via shared memory.
 %mem=20GB
 ----------------------------------------------
 # opt(ModRedundant) freq b3lyp/6-31g(d) nosymm
 ----------------------------------------------
 1/18=120,19=15,26=3,38=1/1,3;
 2/9=110,12=2,15=1,17=6,18=5,40=1/2;
 3/5=1,6=6,7=1,11=2,25=1,30=1,71=1,74=-5/1,2,3;
 4//1;
 5/5=2,38=5/2;
 6/7=2,8=2,9=2,10=2,28=1/1;
 7/30=1/1,2,3,16;
 1/18=20,19=15,26=3/3(2);
 2/9=110,15=1/2;
 99//99;
 2/9=110,15=1/2;
 3/5=1,6=6,7=1,11=2,25=1,30=1,71=1,74=-5/1,2,3;
 4/5=5,16=3,69=1/1;
 5/5=2,38=5/2;
 7/30=1/1,2,3,16;
 1/18=20,19=15,26=3/3(-5);
 2/9=110,15=1/2;
 6/7=2,8=2,9=2,10=2,19=2,28=1/1;
 99/9=1/99;
 ------------
 Optimization
 ------------
 Symbolic Z-matrix:
 Charge =  0 Multiplicity = 1
 N(Fragment=1)         1.2608    0.        0. 
 C(Fragment=1)        -1.3613    0.        0. 
 C(Fragment=1)         0.1006    0.        0. 
 H(Fragment=1)        -1.75     -0.8301    0.5974 
 H(Fragment=1)        -1.7501   -0.1022   -1.0175 
 H(Fragment=1)        -1.75      0.9324    0.4202 
 O(Fragment=2)         0.7585    2.6964    1.2154 
 H(Fragment=2)         0.6594    2.919     2.142 
 H(Fragment=2)         0.6718    3.5459    0.7664 
 
 Add virtual bond connecting atoms O7         and N1         Dist= 5.67D+00.
 Add virtual bond connecting atoms O7         and C3         Dist= 5.73D+00.
 The following ModRedundant input section has been read:
 

 GradGradGradGradGradGradGradGradGradGradGradGradGradGradGradGradGradGrad
 Berny optimization.
 Initialization pass.
                           ----------------------------
                           !    Initial Parameters    !
                           ! (Angstroms and Degrees)  !
 --------------------------                            --------------------------
 ! Name  Definition              Value          Derivative Info.                !
 --------------------------------------------------------------------------------
 ! R1    R(1,3)                  1.1602         estimate D2E/DX2                !
 ! R2    R(1,7)                  3.0            estimate D2E/DX2                !
 ! R3    R(2,3)                  1.4619         estimate D2E/DX2                !
 ! R4    R(2,4)                  1.0941         estimate D2E/DX2                !
 ! R5    R(2,5)                  1.094          estimate D2E/DX2                !
 ! R6    R(2,6)                  1.0941         estimate D2E/DX2                !
 ! R7    R(3,7)                  3.03           estimate D2E/DX2                !
 ! R8    R(7,8)                  0.9581         estimate D2E/DX2                !
 ! R9    R(7,9)                  0.9648         estimate D2E/DX2                !
 ! A1    A(3,2,4)              110.8101         estimate D2E/DX2                !
 ! A2    A(3,2,5)              110.8168         estimate D2E/DX2                !
 ! A3    A(3,2,6)              110.8102         estimate D2E/DX2                !
 ! A4    A(4,2,5)              108.1009         estimate D2E/DX2                !
 ! A5    A(4,2,6)              108.099          estimate D2E/DX2                !
 ! A6    A(5,2,6)              108.0923         estimate D2E/DX2                !
 ! A7    A(2,3,7)              102.5407         estimate D2E/DX2                !
 ! A8    A(1,7,8)              128.1666         estimate D2E/DX2                !
 ! A9    A(1,7,9)              128.1639         estimate D2E/DX2                !
 ! A10   A(3,7,8)              124.9065         estimate D2E/DX2                !
 ! A11   A(3,7,9)              125.2676         estimate D2E/DX2                !
 ! A12   A(8,7,9)              103.6639         estimate D2E/DX2                !
 ! A13   L(1,3,2,7,-1)         180.0            estimate D2E/DX2                !
 ! A14   L(1,3,2,7,-2)         180.0            estimate D2E/DX2                !
 ! D1    D(4,2,3,7)           -119.995          estimate D2E/DX2                !
 ! D2    D(5,2,3,7)            119.9991         estimate D2E/DX2                !
 ! D3    D(6,2,3,7)              0.004          estimate D2E/DX2                !
 ! D4    D(2,3,7,8)             73.4758         estimate D2E/DX2                !
 ! D5    D(2,3,7,9)            -74.3318         estimate D2E/DX2                !
 --------------------------------------------------------------------------------
 Trust Radius=3.00D-01 FncErr=1.00D-07 GrdErr=1.00D-06 EigMax=2.50D+02 EigMin=1.00D-04
 Number of steps in this run=     38 maximum allowed number of steps=    100.
 GradGradGradGradGradGradGradGradGradGradGradGradGradGradGradGradGradGrad

                          Input orientation:                          
 ---------------------------------------------------------------------
 Center     Atomic      Atomic             Coordinates (Angstroms)
 Number     Number       Type             X           Y           Z
 ---------------------------------------------------------------------
      1          7           0        1.260800    0.000000    0.000000
      2          6           0       -1.361300    0.000000    0.000000
      3          6           0        0.100600    0.000000    0.000000
      4          1           0       -1.750000   -0.830100    0.597400
      5          1           0       -1.750100   -0.102200   -1.017500
      6          1           0       -1.750000    0.932400    0.420200
      7          8           0        0.758500    2.696400    1.215400
      8          1           0        0.659400    2.919000    2.142000
      9          1           0        0.671800    3.545900    0.766400
 ---------------------------------------------------------------------
                    Distance matrix (angstroms):
                    1          2          3          4          5
     1  N    0.000000
     2  C    2.622100   0.000000
     3  C    1.160200   1.461900   0.000000
     4  H    3.179759   1.094093   2.114397   0.000000
     5  H    3.179822   1.094037   2.114436   1.771367   0.000000
     6  H    3.179757   1.094087   2.114393   1.771385   1.771265
     7  O    3.000013   3.638863   3.029951   4.371578   4.371622
     8  H    3.670205   4.146318   3.663466   4.716646   4.991571
     9  H    3.675282   4.158638   3.672471   5.004303   4.728269
                    6          7          8          9
     6  H    0.000000
     7  O    3.168061   0.000000
     8  H    3.566004   0.958102   0.000000
     9  H    3.579854   0.964763   1.511765   0.000000
 Symmetry turned off by external request.
 Stoichiometry    C2H5NO
 Framework group  C1[X(C2H5NO)]
 Deg. of freedom    21
 Full point group                 C1      NOp   1
 Rotational constants (GHZ):           9.9228366           3.7950873           2.8291612
 Standard basis: 6-31G(d) (6D, 7F)
    70 basis functions,   132 primitive gaussians,    70 cartesian basis functions
    16 alpha electrons       16 beta electrons
       nuclear repulsion energy       101.9469465389 Hartrees.
 NAtoms=    9 NActive=    9 NUniq=    9 SFac= 1.00D+00 NAtFMM=   60 NAOKFM=F Big=F
 Integral buffers will be    131072 words long.
 Raffenetti 2 integral format.
 Two-electron integral symmetry is turned off.
 One-electron integrals computed using PRISM.
 NBasis=    70 RedAO= T EigKep=  1.47D-03  NBF=    70
 NBsUse=    70 1.00D-06 EigRej= -1.00D+00 NBFU=    70
 ExpMin= 1.61D-01 ExpMax= 5.48D+03 ExpMxC= 8.25D+02 IAcc=3 IRadAn=         5 AccDes= 0.00D+00
 Harris functional with IExCor=  402 and IRadAn=       5 diagonalized for initial guess.
 HarFok:  IExCor=  402 AccDes= 0.00D+00 IRadAn=         5 IDoV= 1 UseB2=F ITyADJ=14
 ICtDFT=  3500011 ScaDFX=  1.000000  1.000000  1.000000  1.000000
 FoFCou: FMM=F IPFlag=           0 FMFlag=      100000 FMFlg1=           0
         NFxFlg=           0 DoJE=T BraDBF=F KetDBF=T FulRan=T
         wScrn=  0.000000 ICntrl=       500 IOpCl=  0 I1Cent=   200000004 NGrid=           0
         NMat0=    1 NMatS0=      1 NMatT0=    0 NMatD0=    1 NMtDS0=    0 NMtDT0=    0
 Symmetry not used in FoFCou.
 Keep R1 ints in memory in canonical form, NReq=10237397.
 Requested convergence on RMS density matrix=1.00D-08 within 128 cycles.
 Requested convergence on MAX density matrix=1.00D-06.
 Requested convergence on             energy=1.00D-06.
 No special actions if energy rises.
 Integral accuracy reduced to 1.0D-05 until final iterations.
 Initial convergence to 1.0D-05 achieved.  Increase integral accuracy.
 SCF Done:  E(RB3LYP) =  -209.161780882     A.U. after   13 cycles
            NFock= 13  Conv=0.68D-08     -V/T= 2.0089

 **********************************************************************

            Population analysis using the SCF Density.

 **********************************************************************

 Alpha  occ. eigenvalues --  -19.13775 -14.31223 -10.22514 -10.21109  -1.00170
 Alpha  occ. eigenvalues --   -0.88123  -0.76019  -0.52005  -0.50198  -0.44935
 Alpha  occ. eigenvalues --   -0.44804  -0.37452  -0.33827  -0.30708  -0.30057
 Alpha  occ. eigenvalues --   -0.29223
 Alpha virt. eigenvalues --    0.05405   0.05446   0.06181   0.10187   0.15056
 Alpha virt. eigenvalues --    0.17409   0.18013   0.20231   0.30561   0.54163
 Alpha virt. eigenvalues --    0.54204   0.59469   0.64053   0.64196   0.69597
 Alpha virt. eigenvalues --    0.78080   0.79124   0.80546   0.82535   0.85383
 Alpha virt. eigenvalues --    0.86540   0.87669   0.89761   0.95605   1.06102
 Alpha virt. eigenvalues --    1.06691   1.07224   1.19594   1.40294   1.42313
 Alpha virt. eigenvalues --    1.42702   1.54398   1.55077   1.62099   1.74485
 Alpha virt. eigenvalues --    1.77220   1.79934   1.90563   1.91613   1.98294
 Alpha virt. eigenvalues --    1.98624   2.16042   2.22045   2.22175   2.29392
 Alpha virt. eigenvalues --    2.59180   2.76358   2.77287   2.77659   3.19400
 Alpha virt. eigenvalues --    3.59751   4.02321   4.12441   4.57107
          Condensed to atoms (all electrons):
               1          2          3          4          5          6
     1  N    6.710846  -0.094865   0.850540   0.000013   0.000012  -0.000971
     2  C   -0.094865   5.213016   0.316902   0.364089   0.364112   0.360866
     3  C    0.850540   0.316902   4.524556  -0.023061  -0.023048  -0.025662
     4  H    0.000013   0.364089  -0.023061   0.512986  -0.026576  -0.025760
     5  H    0.000012   0.364112  -0.023048  -0.026576   0.512907  -0.025759
     6  H   -0.000971   0.360866  -0.025662  -0.025760  -0.025759   0.508107
     7  O   -0.005085  -0.001416   0.007653   0.000025   0.000025   0.004689
     8  H    0.000554   0.000044   0.000074  -0.000000   0.000000  -0.000233
     9  H    0.000547   0.000043   0.000075   0.000000  -0.000000  -0.000229
               7          8          9
     1  N   -0.005085   0.000554   0.000547
     2  C   -0.001416   0.000044   0.000043
     3  C    0.007653   0.000074   0.000075
     4  H    0.000025  -0.000000   0.000000
     5  H    0.000025   0.000000  -0.000000
     6  H    0.004689  -0.000233  -0.000229
     7  O    8.274974   0.239912   0.239664
     8  H    0.239912   0.395802  -0.022284
     9  H    0.239664  -0.022284   0.397031
 Mulliken charges:
               1
     1  N   -0.461591
     2  C   -0.522790
     3  C    0.371972
     4  H    0.198285
     5  H    0.198327
     6  H    0.204952
     7  O   -0.760443
     8  H    0.386132
     9  H    0.385154
 Sum of Mulliken charges =  -0.00000
 Mulliken charges with hydrogens summed into heavy atoms:
               1
     1  N   -0.461591
     2  C    0.078775
     3  C    0.371972
     7  O    0.010844
         Mulliken charges condensed to fragments:
      1     -0.010844
      2      0.010844
 Electronic spatial extent (au):  <R**2>=            530.7489
 Charge=             -0.0000 electrons
 Dipole moment (field-independent basis, Debye):
    X=             -3.9129    Y=              2.1084    Z=              0.9467  Tot=              4.5445
 Quadrupole moment (field-independent basis, Debye-Ang):
   XX=            -26.7871   YY=            -12.2979   ZZ=            -19.7644
   XY=              0.5769   XZ=              0.2326   YZ=              4.1905
 Traceless Quadrupole moment (field-independent basis, Debye-Ang):
   XX=             -7.1707   YY=              7.3186   ZZ=             -0.1479
   XY=              0.5769   XZ=              0.2326   YZ=              4.1905
 Octapole moment (field-independent basis, Debye-Ang**2):
  XXX=            -16.2654  YYY=             -1.5375  ZZZ=            -12.6869  XYY=              2.2955
  XXY=            -19.8658  XXZ=             -8.9856  XZZ=             -0.8892  YZZ=             -4.9298
  YYZ=              9.6539  XYZ=              1.6600
 Hexadecapole moment (field-independent basis, Debye-Ang**3):
 XXXX=           -204.3597 YYYY=           -115.4559 ZZZZ=            -59.1637 XXXY=            -44.7109
 XXXZ=            -20.1636 YYYX=            -12.3927 YYYZ=             -2.1375 ZZZX=             -9.3730
 ZZZY=            -30.4092 XXYY=            -88.5130 XXZZ=            -45.7404 YYZZ=            -27.0996
 XXYZ=            -24.3359 YYXZ=              0.8400 ZZXY=             -5.7149
 N-N= 1.019469465389D+02 E-N=-6.930490066810D+02  KE= 2.073150763612D+02
 Calling FoFJK, ICntrl=      2127 FMM=F ISym2X=0 I1Cent= 0 IOpClX= 0 NMat=1 NMatS=1 NMatT=0.
 -------------------------------------------------------------------
 Center     Atomic                   Forces (Hartrees/Bohr)
 Number     Number              X              Y              Z
 -------------------------------------------------------------------
      1        7          -0.001176939   -0.003527879   -0.001584321
      2        6          -0.001321718    0.000726894    0.000363518
      3        6           0.000369939   -0.000688641   -0.000322607
      4        1           0.000732489   -0.000947178    0.000307693
      5        1           0.000730620   -0.000404393   -0.000949610
      6        1           0.002587822    0.001230682    0.000554025
      7        8          -0.002148407   -0.002243103   -0.007002337
      8        1          -0.000265200    0.002186742    0.011106890
      9        1           0.000491393    0.003666876   -0.002473251
 -------------------------------------------------------------------
 Cartesian Forces:  Max     0.011106890 RMS     0.002967784

 GradGradGradGradGradGradGradGradGradGradGradGradGradGradGradGradGradGrad
 Berny optimization.
 FormGI is forming the generalized inverse of G from B-inverse, IUseBI=4.
 Internal  Forces:  Max     0.011277225 RMS     0.002837411
 Search for a local minimum.
 Step number   1 out of a maximum of   38
 All quantities printed in internal units (Hartrees-Bohrs-Radians)
 Mixed Optimization -- RFO/linear search
 Second derivative matrix not updated -- first step.
 ITU=  0
     Eigenvalues ---    0.00518   0.01270   0.01621   0.01770   0.01942
     Eigenvalues ---    0.03892   0.10088   0.10088   0.15160   0.16000
     Eigenvalues ---    0.16000   0.16000   0.16000   0.16000   0.34344
     Eigenvalues ---    0.34345   0.34350   0.36727   0.54461   0.55884
     Eigenvalues ---    1.27375
 RFO step:  Lambda=-1.45716530D-03 EMin= 5.18145416D-03
 Linear search not attempted -- first point.
 Iteration  1 RMS(Cart)=  0.03842194 RMS(Int)=  0.00119976
 Iteration  2 RMS(Cart)=  0.00101602 RMS(Int)=  0.00068553
 Iteration  3 RMS(Cart)=  0.00000029 RMS(Int)=  0.00068553
 Variable       Old X    -DE/DX   Delta X   Delta X   Delta X     New X
                                 (Linear)    (Quad)   (Total)
    R1        2.19246  -0.00194   0.00000  -0.00139  -0.00138   2.19108
    R2        5.66920   0.00456   0.00000   0.18261   0.18249   5.85169
    R3        2.76259  -0.00273   0.00000  -0.00740  -0.00740   2.75519
    R4        2.06754   0.00063   0.00000   0.00182   0.00182   2.06935
    R5        2.06743   0.00066   0.00000   0.00192   0.00192   2.06935
    R6        2.06752   0.00034   0.00000   0.00099   0.00099   2.06852
    R7        5.72578  -0.00077   0.00000   0.00857   0.00869   5.73447
    R8        1.81055   0.01128   0.00000   0.02013   0.02013   1.83068
    R9        1.82314   0.00434   0.00000   0.00794   0.00794   1.83108
    A1        1.93400  -0.00052   0.00000  -0.00287  -0.00291   1.93109
    A2        1.93412  -0.00054   0.00000  -0.00301  -0.00305   1.93107
    A3        1.93400  -0.00383   0.00000  -0.02434  -0.02441   1.90959
    A4        1.88672   0.00098   0.00000   0.00730   0.00729   1.89400
    A5        1.88668   0.00206   0.00000   0.01218   0.01211   1.89879
    A6        1.88657   0.00207   0.00000   0.01219   0.01213   1.89869
    A7        1.78967  -0.00395   0.00000  -0.02435  -0.02461   1.76506
    A8        2.23693  -0.00021   0.00000  -0.00762  -0.00862   2.22831
    A9        2.23688  -0.00022   0.00000  -0.00735  -0.00833   2.22855
   A10        2.18003   0.00031   0.00000   0.01743   0.01595   2.19598
   A11        2.18633   0.00027   0.00000   0.01693   0.01544   2.20178
   A12        1.80928   0.00041   0.00000   0.01360   0.01107   1.82035
   A13        3.14159  -0.00137   0.00000   0.05657   0.05684   3.19843
   A14        3.14159   0.00001   0.00000  -0.00041  -0.00042   3.14118
    D1       -2.09431   0.00027   0.00000   0.00283   0.00279  -2.09152
    D2        2.09438  -0.00027   0.00000  -0.00248  -0.00244   2.09194
    D3        0.00007   0.00001   0.00000   0.00021   0.00021   0.00028
    D4        1.28239   0.00127   0.00000   0.06158   0.06194   1.34433
    D5       -1.29734  -0.00125   0.00000  -0.05909  -0.05946  -1.35679
         Item               Value     Threshold  Converged?
 Maximum Force            0.011277     0.000450     NO 
 RMS     Force            0.002837     0.000300     NO 
 Maximum Displacement     0.137588     0.001800     NO 
 RMS     Displacement     0.038663     0.001200     NO 
 Predicted change in Energy=-7.709021D-04
 GradGradGradGradGradGradGradGradGradGradGradGradGradGradGradGradGradGrad

                          Input orientation:                          
 ---------------------------------------------------------------------
 Center     Atomic      Atomic             Coordinates (Angstroms)
 Number     Number       Type             X           Y           Z
 ---------------------------------------------------------------------
      1          7           0        1.260464   -0.072808   -0.033396
      2          6           0       -1.354527    0.005543    0.002365
      3          6           0        0.103413   -0.004765   -0.002254
      4          1           0       -1.744534   -0.821519    0.604866
      5          1           0       -1.744492   -0.092099   -1.016228
      6          1           0       -1.710311    0.949590    0.427063
      7          8           0        0.712270    2.706018    1.218174
      8          1           0        0.653225    2.930518    2.158704
      9          1           0        0.664191    3.560921    0.764607
 ---------------------------------------------------------------------
                    Distance matrix (angstroms):
                    1          2          3          4          5
     1  N    0.000000
     2  C    2.616409   0.000000
     3  C    1.159468   1.457984   0.000000
     4  H    3.161954   1.095054   2.109642   0.000000
     5  H    3.161660   1.095051   2.109626   1.777638   0.000000
     6  H    3.175346   1.094612   2.093968   1.780340   1.780273
     7  O    3.096582   3.611427   3.034550   4.342297   4.342544
     8  H    3.767494   4.151667   3.686179   4.716083   4.996543
     9  H    3.767803   4.158959   3.690076   5.003323   4.724159
                    6          7          8          9
     6  H    0.000000
     7  O    3.095124   0.000000
     8  H    3.536800   0.968753   0.000000
     9  H    3.545595   0.968965   1.530043   0.000000
 Symmetry turned off by external request.
 Stoichiometry    C2H5NO
 Framework group  C1[X(C2H5NO)]
 Deg. of freedom    21
 Full point group                 C1      NOp   1
 Rotational constants (GHZ):           9.6388405           3.7905481           2.8043322
 Standard basis: 6-31G(d) (6D, 7F)
    70 basis functions,   132 primitive gaussians,    70 cartesian basis functions
    16 alpha electrons       16 beta electrons
       nuclear repulsion energy       101.6844521526 Hartrees.
 NAtoms=    9 NActive=    9 NUniq=    9 SFac= 1.00D+00 NAtFMM=   60 NAOKFM=F Big=F
 Integral buffers will be    131072 words long.
 Raffenetti 2 integral format.
 Two-electron integral symmetry is turned off.
 One-electron integrals computed using PRISM.
 NBasis=    70 RedAO= T EigKep=  1.48D-03  NBF=    70
 NBsUse=    70 1.00D-06 EigRej= -1.00D+00 NBFU=    70
 Initial guess from the checkpoint file:  "Acetonitrile-Water_2.chk"
 B after Tr=    -0.014011   -0.021981   -0.010430
         Rot=    1.000000    0.000092    0.000203   -0.000630 Ang=   0.08 deg.
 ExpMin= 1.61D-01 ExpMax= 5.48D+03 ExpMxC= 8.25D+02 IAcc=3 IRadAn=         5 AccDes= 0.00D+00
 Harris functional with IExCor=  402 and IRadAn=       5 diagonalized for initial guess.
 HarFok:  IExCor=  402 AccDes= 0.00D+00 IRadAn=         5 IDoV= 1 UseB2=F ITyADJ=14
 ICtDFT=  3500011 ScaDFX=  1.000000  1.000000  1.000000  1.000000
 FoFCou: FMM=F IPFlag=           0 FMFlag=      100000 FMFlg1=           0
         NFxFlg=           0 DoJE=T BraDBF=F KetDBF=T FulRan=T
         wScrn=  0.000000 ICntrl=       500 IOpCl=  0 I1Cent=   200000004 NGrid=           0
         NMat0=    1 NMatS0=      1 NMatT0=    0 NMatD0=    1 NMtDS0=    0 NMtDT0=    0
 Symmetry not used in FoFCou.
 Keep R1 ints in memory in canonical form, NReq=10237397.
 Requested convergence on RMS density matrix=1.00D-08 within 128 cycles.
 Requested convergence on MAX density matrix=1.00D-06.
 Requested convergence on             energy=1.00D-06.
 No special actions if energy rises.
 Integral accuracy reduced to 1.0D-05 until final iterations.
 Initial convergence to 1.0D-05 achieved.  Increase integral accuracy.
 SCF Done:  E(RB3LYP) =  -209.162782704     A.U. after   12 cycles
            NFock= 12  Conv=0.25D-08     -V/T= 2.0090
 Calling FoFJK, ICntrl=      2127 FMM=F ISym2X=0 I1Cent= 0 IOpClX= 0 NMat=1 NMatS=1 NMatT=0.
 -------------------------------------------------------------------
 Center     Atomic                   Forces (Hartrees/Bohr)
 Number     Number              X              Y              Z
 -------------------------------------------------------------------
      1        7           0.000966744   -0.000758080   -0.000320513
      2        6          -0.001490540    0.003833179    0.001741900
      3        6           0.001862075   -0.006018356   -0.002751578
      4        1           0.000406869    0.000088412   -0.000043051
      5        1           0.000413551    0.000022193    0.000091543
      6        1          -0.000196009    0.000077517    0.000034759
      7        8          -0.003351285    0.001434827    0.000468772
      8        1           0.000700187    0.000935068   -0.000040977
      9        1           0.000688406    0.000385240    0.000819144
 -------------------------------------------------------------------
 Cartesian Forces:  Max     0.006018356 RMS     0.001778371

 GradGradGradGradGradGradGradGradGradGradGradGradGradGradGradGradGradGrad
 Berny optimization.
 Using GEDIIS/GDIIS optimizer.
 FormGI is forming the generalized inverse of G from B-inverse, IUseBI=4.
 Internal  Forces:  Max     0.006318327 RMS     0.001675552
 Search for a local minimum.
 Step number   2 out of a maximum of   38
 All quantities printed in internal units (Hartrees-Bohrs-Radians)
 Mixed Optimization -- RFO/linear search
 Update second derivatives using D2CorX and points    1    2
 DE= -1.00D-03 DEPred=-7.71D-04 R= 1.30D+00
 TightC=F SS=  1.41D+00  RLast= 2.16D-01 DXNew= 5.0454D-01 6.4936D-01
 Trust test= 1.30D+00 RLast= 2.16D-01 DXMaxT set to 5.05D-01
 ITU=  1  0
 Use linear search instead of GDIIS.
     Eigenvalues ---    0.00516   0.00848   0.01270   0.01621   0.02060
     Eigenvalues ---    0.03797   0.10118   0.10258   0.11444   0.15974
     Eigenvalues ---    0.16000   0.16000   0.16000   0.18783   0.34341
     Eigenvalues ---    0.34347   0.34424   0.37563   0.54638   0.63428
     Eigenvalues ---    1.27336
 RFO step:  Lambda=-1.50245932D-03 EMin= 5.15956008D-03
 Quartic linear search produced a step of  0.64528.
 Iteration  1 RMS(Cart)=  0.05654272 RMS(Int)=  0.01309882
 Iteration  2 RMS(Cart)=  0.01771191 RMS(Int)=  0.00418808
 Iteration  3 RMS(Cart)=  0.00012384 RMS(Int)=  0.00418673
 Iteration  4 RMS(Cart)=  0.00000020 RMS(Int)=  0.00418673
 Variable       Old X    -DE/DX   Delta X   Delta X   Delta X     New X
                                 (Linear)    (Quad)   (Total)
    R1        2.19108   0.00030  -0.00089   0.00040  -0.00085   2.19023
    R2        5.85169   0.00304   0.11776   0.14746   0.26516   6.11686
    R3        2.75519   0.00090  -0.00478   0.00127  -0.00351   2.75168
    R4        2.06935  -0.00024   0.00117  -0.00044   0.00073   2.07008
    R5        2.06935  -0.00023   0.00124  -0.00040   0.00084   2.07018
    R6        2.06852   0.00014   0.00064   0.00101   0.00165   2.07016
    R7        5.73447  -0.00026   0.00561   0.13065   0.13644   5.87091
    R8        1.83068   0.00013   0.01299   0.00743   0.02042   1.85109
    R9        1.83108  -0.00008   0.00512   0.00256   0.00768   1.83876
    A1        1.93109  -0.00049  -0.00188  -0.00603  -0.00800   1.92309
    A2        1.93107  -0.00050  -0.00197  -0.00621  -0.00827   1.92279
    A3        1.90959   0.00045  -0.01575  -0.00366  -0.01954   1.89005
    A4        1.89400   0.00032   0.00470   0.00479   0.00943   1.90343
    A5        1.89879   0.00012   0.00781   0.00577   0.01345   1.91225
    A6        1.89869   0.00012   0.00782   0.00580   0.01349   1.91219
    A7        1.76506  -0.00632  -0.01588  -0.07409  -0.09031   1.67475
    A8        2.22831   0.00035  -0.00556  -0.01140  -0.02267   2.20564
    A9        2.22855   0.00035  -0.00538  -0.01075  -0.02186   2.20669
   A10        2.19598   0.00082   0.01029   0.03157   0.03197   2.22796
   A11        2.20178   0.00078   0.00997   0.03047   0.03057   2.23234
   A12        1.82035  -0.00092   0.00715   0.00320  -0.00478   1.81557
   A13        3.19843  -0.00481   0.03667  -0.06185  -0.02483   3.17360
   A14        3.14118   0.00004  -0.00027   0.00219   0.00192   3.14310
    D1       -2.09152  -0.00012   0.00180  -0.00070   0.00103  -2.09049
    D2        2.09194   0.00013  -0.00157   0.00133  -0.00018   2.09176
    D3        0.00028   0.00000   0.00013   0.00035   0.00048   0.00076
    D4        1.34433   0.00100   0.03997   0.10598   0.14541   1.48974
    D5       -1.35679  -0.00098  -0.03837  -0.10640  -0.14422  -1.50101
         Item               Value     Threshold  Converged?
 Maximum Force            0.006318     0.000450     NO 
 RMS     Force            0.001676     0.000300     NO 
 Maximum Displacement     0.182380     0.001800     NO 
 RMS     Displacement     0.068205     0.001200     NO 
 Predicted change in Energy=-9.364118D-04
 GradGradGradGradGradGradGradGradGradGradGradGradGradGradGradGradGradGrad

                          Input orientation:                          
 ---------------------------------------------------------------------
 Center     Atomic      Atomic             Coordinates (Angstroms)
 Number     Number       Type             X           Y           Z
 ---------------------------------------------------------------------
      1          7           0        1.265851   -0.163972   -0.073796
      2          6           0       -1.341959    0.010636    0.004329
      3          6           0        0.111631   -0.067409   -0.031604
      4          1           0       -1.748957   -0.800196    0.618246
      5          1           0       -1.749646   -0.068953   -1.009359
      6          1           0       -1.623813    0.976227    0.438235
      7          8           0        0.615758    2.728152    1.226405
      8          1           0        0.651287    2.958605    2.177804
      9          1           0        0.659548    3.588310    0.773641
 ---------------------------------------------------------------------
                    Distance matrix (angstroms):
                    1          2          3          4          5
     1  N    0.000000
     2  C    2.614817   0.000000
     3  C    1.159020   1.456127   0.000000
     4  H    3.157969   1.095441   2.102634   0.000000
     5  H    3.158722   1.095493   2.102465   1.784325   0.000000
     6  H    3.148395   1.095483   2.078868   1.789901   1.789906
     7  O    3.236901   3.565253   3.106750   4.290802   4.291570
     8  H    3.898446   4.169838   3.785429   4.724614   5.008852
     9  H    3.894275   4.171046   3.783241   5.008396   4.728518
                    6          7          8          9
     6  H    0.000000
     7  O    2.950616   0.000000
     8  H    3.483103   0.979557   0.000000
     9  H    3.485572   0.973028   1.538919   0.000000
 Symmetry turned off by external request.
 Stoichiometry    C2H5NO
 Framework group  C1[X(C2H5NO)]
 Deg. of freedom    21
 Full point group                 C1      NOp   1
 Rotational constants (GHZ):           9.2936193           3.7334927           2.7444293
 Standard basis: 6-31G(d) (6D, 7F)
    70 basis functions,   132 primitive gaussians,    70 cartesian basis functions
    16 alpha electrons       16 beta electrons
       nuclear repulsion energy       101.1320683004 Hartrees.
 NAtoms=    9 NActive=    9 NUniq=    9 SFac= 1.00D+00 NAtFMM=   60 NAOKFM=F Big=F
 Integral buffers will be    131072 words long.
 Raffenetti 2 integral format.
 Two-electron integral symmetry is turned off.
 One-electron integrals computed using PRISM.
 NBasis=    70 RedAO= T EigKep=  1.48D-03  NBF=    70
 NBsUse=    70 1.00D-06 EigRej= -1.00D+00 NBFU=    70
 Initial guess from the checkpoint file:  "Acetonitrile-Water_2.chk"
 B after Tr=    -0.017245   -0.041677   -0.019124
         Rot=    0.999992    0.000149    0.001726   -0.003691 Ang=   0.47 deg.
 ExpMin= 1.61D-01 ExpMax= 5.48D+03 ExpMxC= 8.25D+02 IAcc=3 IRadAn=         5 AccDes= 0.00D+00
 Harris functional with IExCor=  402 and IRadAn=       5 diagonalized for initial guess.
 HarFok:  IExCor=  402 AccDes= 0.00D+00 IRadAn=         5 IDoV= 1 UseB2=F ITyADJ=14
 ICtDFT=  3500011 ScaDFX=  1.000000  1.000000  1.000000  1.000000
 FoFCou: FMM=F IPFlag=           0 FMFlag=      100000 FMFlg1=           0
         NFxFlg=           0 DoJE=T BraDBF=F KetDBF=T FulRan=T
         wScrn=  0.000000 ICntrl=       500 IOpCl=  0 I1Cent=   200000004 NGrid=           0
         NMat0=    1 NMatS0=      1 NMatT0=    0 NMatD0=    1 NMtDS0=    0 NMtDT0=    0
 Symmetry not used in FoFCou.
 Keep R1 ints in memory in canonical form, NReq=10237397.
 Requested convergence on RMS density matrix=1.00D-08 within 128 cycles.
 Requested convergence on MAX density matrix=1.00D-06.
 Requested convergence on             energy=1.00D-06.
 No special actions if energy rises.
 Integral accuracy reduced to 1.0D-05 until final iterations.
 Initial convergence to 1.0D-05 achieved.  Increase integral accuracy.
 SCF Done:  E(RB3LYP) =  -209.164235658     A.U. after   13 cycles
            NFock= 13  Conv=0.34D-08     -V/T= 2.0091
 Calling FoFJK, ICntrl=      2127 FMM=F ISym2X=0 I1Cent= 0 IOpClX= 0 NMat=1 NMatS=1 NMatT=0.
 -------------------------------------------------------------------
 Center     Atomic                   Forces (Hartrees/Bohr)
 Number     Number              X              Y              Z
 -------------------------------------------------------------------
      1        7           0.002339156   -0.000897674   -0.000472908
      2        6           0.000210828    0.003655273    0.001521891
      3        6           0.002601571   -0.004581241   -0.001906062
      4        1          -0.000705121    0.000906764   -0.000431365
      5        1          -0.000737090    0.000287366    0.001004348
      6        1          -0.001722495   -0.000870168   -0.000395872
      7        8          -0.002863879    0.006445688    0.008224311
      8        1           0.000348628   -0.001767585   -0.009898833
      9        1           0.000528403   -0.003178423    0.002354490
 -------------------------------------------------------------------
 Cartesian Forces:  Max     0.009898833 RMS     0.003306440

 GradGradGradGradGradGradGradGradGradGradGradGradGradGradGradGradGradGrad
 Berny optimization.
 Using GEDIIS/GDIIS optimizer.
 FormGI is forming the generalized inverse of G from B-inverse, IUseBI=4.
 Internal  Forces:  Max     0.010017444 RMS     0.002701757
 Search for a local minimum.
 Step number   3 out of a maximum of   38
 All quantities printed in internal units (Hartrees-Bohrs-Radians)
 Mixed Optimization -- RFO/linear search
 Update second derivatives using D2CorX and points    1    2    3
 DE= -1.45D-03 DEPred=-9.36D-04 R= 1.55D+00
 TightC=F SS=  1.41D+00  RLast= 3.80D-01 DXNew= 8.4853D-01 1.1387D+00
 Trust test= 1.55D+00 RLast= 3.80D-01 DXMaxT set to 8.49D-01
 ITU=  1  1  0
 Use linear search instead of GDIIS.
     Eigenvalues ---    0.00298   0.00510   0.01270   0.01493   0.02138
     Eigenvalues ---    0.03541   0.09659   0.10381   0.10410   0.15995
     Eigenvalues ---    0.16000   0.16000   0.16477   0.19159   0.34347
     Eigenvalues ---    0.34363   0.34438   0.37799   0.54645   0.99734
     Eigenvalues ---    1.28882
 RFO step:  Lambda=-2.30593018D-03 EMin= 2.97531995D-03
 Quartic linear search produced a step of  1.98958.
 Iteration  1 RMS(Cart)=  0.07972476 RMS(Int)=  0.12618496
 Iteration  2 RMS(Cart)=  0.06014769 RMS(Int)=  0.07036776
 Iteration  3 RMS(Cart)=  0.05930949 RMS(Int)=  0.03782591
 Iteration  4 RMS(Cart)=  0.02958626 RMS(Int)=  0.03174814
 Iteration  5 RMS(Cart)=  0.00046045 RMS(Int)=  0.03174654
 Iteration  6 RMS(Cart)=  0.00000122 RMS(Int)=  0.03174654
 Iteration  7 RMS(Cart)=  0.00000002 RMS(Int)=  0.03174654
 Variable       Old X    -DE/DX   Delta X   Delta X   Delta X     New X
                                 (Linear)    (Quad)   (Total)
    R1        2.19023   0.00163  -0.00168   0.00132  -0.00265   2.18758
    R2        6.11686   0.00277   0.52757   0.25372   0.78035   6.89720
    R3        2.75168   0.00320  -0.00698   0.00953   0.00255   2.75423
    R4        2.07008  -0.00065   0.00145  -0.00169  -0.00023   2.06985
    R5        2.07018  -0.00068   0.00166  -0.00175  -0.00008   2.07010
    R6        2.07016  -0.00048   0.00328  -0.00257   0.00071   2.07087
    R7        5.87091  -0.00129   0.27145  -0.02237   0.25096   6.12186
    R8        1.85109  -0.01002   0.04062  -0.01967   0.02095   1.87205
    R9        1.83876  -0.00388   0.01528  -0.00764   0.00763   1.84639
    A1        1.92309   0.00083  -0.01592   0.01142  -0.00471   1.91837
    A2        1.92279   0.00092  -0.01646   0.01263  -0.00405   1.91874
    A3        1.89005   0.00240  -0.03888   0.00508  -0.03411   1.85593
    A4        1.90343  -0.00108   0.01876  -0.01023   0.00839   1.91182
    A5        1.91225  -0.00153   0.02676  -0.00941   0.01703   1.92928
    A6        1.91219  -0.00155   0.02685  -0.00958   0.01695   1.92913
    A7        1.67475  -0.00573  -0.17969  -0.07191  -0.25680   1.41795
    A8        2.20564   0.00010  -0.04511  -0.03079  -0.09793   2.10772
    A9        2.20669   0.00004  -0.04349  -0.03248  -0.09809   2.10860
   A10        2.22796   0.00048   0.06362   0.01980   0.00834   2.23629
   A11        2.23234   0.00050   0.06081   0.02081   0.00668   2.23903
   A12        1.81557  -0.00078  -0.00952  -0.01138  -0.12922   1.68635
   A13        3.17360  -0.00406  -0.04941   0.05888   0.01467   3.18827
   A14        3.14310  -0.00012   0.00383  -0.01799  -0.01416   3.12894
    D1       -2.09049  -0.00010   0.00206   0.00174   0.00364  -2.08685
    D2        2.09176   0.00012  -0.00037  -0.00095  -0.00117   2.09059
    D3        0.00076  -0.00001   0.00096   0.00014   0.00110   0.00186
    D4        1.48974   0.00098   0.28931   0.16348   0.40700   1.89674
    D5       -1.50101  -0.00095  -0.28694  -0.13550  -0.37665  -1.87767
         Item               Value     Threshold  Converged?
 Maximum Force            0.010017     0.000450     NO 
 RMS     Force            0.002702     0.000300     NO 
 Maximum Displacement     0.560845     0.001800     NO 
 RMS     Displacement     0.211286     0.001200     NO 
 Predicted change in Energy=-6.738851D-05
 GradGradGradGradGradGradGradGradGradGradGradGradGradGradGradGradGradGrad

                          Input orientation:                          
 ---------------------------------------------------------------------
 Center     Atomic      Atomic             Coordinates (Angstroms)
 Number     Number       Type             X           Y           Z
 ---------------------------------------------------------------------
      1          7           0        1.279511   -0.460759   -0.211960
      2          6           0       -1.269481    0.067568    0.029470
      3          6           0        0.157942   -0.203392   -0.085764
      4          1           0       -1.741028   -0.683259    0.672604
      5          1           0       -1.735100    0.045339   -0.961849
      6          1           0       -1.358960    1.065286    0.473833
      7          8           0        0.321596    2.749090    1.237393
      8          1           0        0.598802    2.992891    2.156684
      9          1           0        0.586418    3.588636    0.813489
 ---------------------------------------------------------------------
                    Distance matrix (angstroms):
                    1          2          3          4          5
     1  N    0.000000
     2  C    2.614341   0.000000
     3  C    1.157618   1.457476   0.000000
     4  H    3.155252   1.095316   2.100353   0.000000
     5  H    3.147436   1.095449   2.100714   1.789504   0.000000
     6  H    3.124204   1.095859   2.055160   1.800804   1.800821
     7  O    3.649844   3.343826   3.239550   4.044061   4.046843
     8  H    4.242822   4.071000   3.929269   4.603409   4.884712
     9  H    4.234327   4.056720   3.920680   4.866821   4.593063
                    6          7          8          9
     6  H    0.000000
     7  O    2.498498   0.000000
     8  H    3.221875   0.990645   0.000000
     9  H    3.204241   0.977068   1.469434   0.000000
 Symmetry turned off by external request.
 Stoichiometry    C2H5NO
 Framework group  C1[X(C2H5NO)]
 Deg. of freedom    21
 Full point group                 C1      NOp   1
 Rotational constants (GHZ):           9.2260753           3.5385934           2.6295526
 Standard basis: 6-31G(d) (6D, 7F)
    70 basis functions,   132 primitive gaussians,    70 cartesian basis functions
    16 alpha electrons       16 beta electrons
       nuclear repulsion energy       100.4687488135 Hartrees.
 NAtoms=    9 NActive=    9 NUniq=    9 SFac= 1.00D+00 NAtFMM=   60 NAOKFM=F Big=F
 Integral buffers will be    131072 words long.
 Raffenetti 2 integral format.
 Two-electron integral symmetry is turned off.
 One-electron integrals computed using PRISM.
 NBasis=    70 RedAO= T EigKep=  1.53D-03  NBF=    70
 NBsUse=    70 1.00D-06 EigRej= -1.00D+00 NBFU=    70
 Initial guess from the checkpoint file:  "Acetonitrile-Water_2.chk"
 B after Tr=    -0.045899   -0.122145   -0.054613
         Rot=    0.999948   -0.000185    0.003851   -0.009486 Ang=  -1.17 deg.
 ExpMin= 1.61D-01 ExpMax= 5.48D+03 ExpMxC= 8.25D+02 IAcc=3 IRadAn=         5 AccDes= 0.00D+00
 Harris functional with IExCor=  402 and IRadAn=       5 diagonalized for initial guess.
 HarFok:  IExCor=  402 AccDes= 0.00D+00 IRadAn=         5 IDoV= 1 UseB2=F ITyADJ=14
 ICtDFT=  3500011 ScaDFX=  1.000000  1.000000  1.000000  1.000000
 FoFCou: FMM=F IPFlag=           0 FMFlag=      100000 FMFlg1=           0
         NFxFlg=           0 DoJE=T BraDBF=F KetDBF=T FulRan=T
         wScrn=  0.000000 ICntrl=       500 IOpCl=  0 I1Cent=   200000004 NGrid=           0
         NMat0=    1 NMatS0=      1 NMatT0=    0 NMatD0=    1 NMtDS0=    0 NMtDT0=    0
 Symmetry not used in FoFCou.
 Keep R1 ints in memory in canonical form, NReq=10237397.
 Requested convergence on RMS density matrix=1.00D-08 within 128 cycles.
 Requested convergence on MAX density matrix=1.00D-06.
 Requested convergence on             energy=1.00D-06.
 No special actions if energy rises.
 Integral accuracy reduced to 1.0D-05 until final iterations.
 Initial convergence to 1.0D-05 achieved.  Increase integral accuracy.
 SCF Done:  E(RB3LYP) =  -209.165557342     A.U. after   14 cycles
            NFock= 14  Conv=0.47D-08     -V/T= 2.0092
 Calling FoFJK, ICntrl=      2127 FMM=F ISym2X=0 I1Cent= 0 IOpClX= 0 NMat=1 NMatS=1 NMatT=0.
 -------------------------------------------------------------------
 Center     Atomic                   Forces (Hartrees/Bohr)
 Number     Number              X              Y              Z
 -------------------------------------------------------------------
      1        7           0.007038803   -0.000454510    0.000318971
      2        6           0.004685236    0.004551041    0.002566498
      3        6          -0.002889350   -0.005791393   -0.003726310
      4        1          -0.001203786    0.001637965   -0.000372860
      5        1          -0.000947650    0.000722798    0.001474000
      6        1          -0.005288043   -0.000819875   -0.000321500
      7        8           0.010454695    0.023087911    0.020262215
      8        1          -0.007562889   -0.015080232   -0.010792272
      9        1          -0.004287016   -0.007853704   -0.009408741
 -------------------------------------------------------------------
 Cartesian Forces:  Max     0.023087911 RMS     0.008196787

 GradGradGradGradGradGradGradGradGradGradGradGradGradGradGradGradGradGrad
 Berny optimization.
 Using GEDIIS/GDIIS optimizer.
 FormGI is forming the generalized inverse of G from B-inverse, IUseBI=4.
 Internal  Forces:  Max     0.015842496 RMS     0.005187241
 Search for a local minimum.
 Step number   4 out of a maximum of   38
 All quantities printed in internal units (Hartrees-Bohrs-Radians)
 Mixed Optimization -- RFO/linear search
 Update second derivatives using D2CorX and points    3    4
 DE= -1.32D-03 DEPred=-6.74D-05 R= 1.96D+01
 TightC=F SS=  1.41D+00  RLast= 1.04D+00 DXNew= 1.4270D+00 3.1238D+00
 Trust test= 1.96D+01 RLast= 1.04D+00 DXMaxT set to 1.43D+00
 ITU=  1  1  1  0
 Use linear search instead of GDIIS.
     Eigenvalues ---    0.00374   0.00477   0.01270   0.02208   0.02599
     Eigenvalues ---    0.02866   0.09523   0.10413   0.10626   0.16000
     Eigenvalues ---    0.16000   0.16376   0.19021   0.21077   0.34347
     Eigenvalues ---    0.34363   0.34437   0.37774   0.54721   0.98222
     Eigenvalues ---    1.26352
 RFO step:  Lambda=-1.97719035D-03 EMin= 3.73882722D-03
 Quartic linear search produced a step of -0.26481.
 Iteration  1 RMS(Cart)=  0.04114512 RMS(Int)=  0.00497513
 Iteration  2 RMS(Cart)=  0.00131024 RMS(Int)=  0.00481371
 Iteration  3 RMS(Cart)=  0.00000924 RMS(Int)=  0.00481370
 Iteration  4 RMS(Cart)=  0.00000015 RMS(Int)=  0.00481370
 Variable       Old X    -DE/DX   Delta X   Delta X   Delta X     New X
                                 (Linear)    (Quad)   (Total)
    R1        2.18758   0.00565   0.00070   0.00257   0.00329   2.19087
    R2        6.89720   0.00139  -0.20664   0.27395   0.06790   6.96511
    R3        2.75423   0.00409  -0.00067   0.00426   0.00359   2.75782
    R4        2.06985  -0.00082   0.00006  -0.00071  -0.00065   2.06920
    R5        2.07010  -0.00095   0.00002  -0.00086  -0.00083   2.06926
    R6        2.07087  -0.00045  -0.00019  -0.00019  -0.00038   2.07050
    R7        6.12186  -0.00103  -0.06645   0.11612   0.04899   6.17086
    R8        1.87205  -0.01584  -0.00555  -0.00307  -0.00862   1.86343
    R9        1.84639  -0.00383  -0.00202   0.00139  -0.00063   1.84576
    A1        1.91837   0.00114   0.00125   0.00145   0.00269   1.92106
    A2        1.91874   0.00070   0.00107  -0.00029   0.00078   1.91952
    A3        1.85593   0.00755   0.00903   0.01016   0.01919   1.87512
    A4        1.91182  -0.00196  -0.00222  -0.00418  -0.00640   1.90542
    A5        1.92928  -0.00367  -0.00451  -0.00365  -0.00817   1.92111
    A6        1.92913  -0.00351  -0.00449  -0.00311  -0.00760   1.92154
    A7        1.41795  -0.00495   0.06800  -0.10393  -0.03441   1.38354
    A8        2.10772  -0.00457   0.02593  -0.02714   0.00169   2.10940
    A9        2.10860  -0.00428   0.02598  -0.02264   0.00636   2.11496
   A10        2.23629  -0.00534  -0.00221  -0.02607  -0.01603   2.22027
   A11        2.23903  -0.00560  -0.00177  -0.03084  -0.02048   2.21855
   A12        1.68635   0.01266   0.03422   0.03074   0.08115   1.76750
   A13        3.18827  -0.00517  -0.00389  -0.01864  -0.02405   3.16422
   A14        3.12894   0.00107   0.00375   0.03487   0.03857   3.16751
    D1       -2.08685  -0.00064  -0.00096  -0.00209  -0.00307  -2.08991
    D2        2.09059   0.00061   0.00031   0.00235   0.00266   2.09325
    D3        0.00186   0.00001  -0.00029   0.00027  -0.00001   0.00185
    D4        1.89674  -0.00414  -0.10778   0.00809  -0.09395   1.80280
    D5       -1.87767   0.00402   0.09974  -0.04509   0.04887  -1.82880
         Item               Value     Threshold  Converged?
 Maximum Force            0.015842     0.000450     NO 
 RMS     Force            0.005187     0.000300     NO 
 Maximum Displacement     0.099718     0.001800     NO 
 RMS     Displacement     0.041762     0.001200     NO 
 Predicted change in Energy=-1.273000D-03
 GradGradGradGradGradGradGradGradGradGradGradGradGradGradGradGradGradGrad

                          Input orientation:                          
 ---------------------------------------------------------------------
 Center     Atomic      Atomic             Coordinates (Angstroms)
 Number     Number       Type             X           Y           Z
 ---------------------------------------------------------------------
      1          7           0        1.287805   -0.503494   -0.216722
      2          6           0       -1.250867    0.085371    0.036646
      3          6           0        0.167590   -0.223124   -0.113635
      4          1           0       -1.730110   -0.656182    0.684250
      5          1           0       -1.741125    0.078163   -0.942453
      6          1           0       -1.324292    1.081446    0.487106
      7          8           0        0.330843    2.747181    1.233201
      8          1           0        0.546033    2.966054    2.170299
      9          1           0        0.553823    3.585984    0.785208
 ---------------------------------------------------------------------
                    Distance matrix (angstroms):
                    1          2          3          4          5
     1  N    0.000000
     2  C    2.618360   0.000000
     3  C    1.159360   1.459374   0.000000
     4  H    3.153232   1.094972   2.103669   0.000000
     5  H    3.168505   1.095007   2.102595   1.784810   0.000000
     6  H    3.135357   1.095660   2.070871   1.795245   1.795541
     7  O    3.685776   3.319455   3.265476   4.016436   4.018729
     8  H    4.276197   4.009945   3.940867   4.528771   4.822886
     9  H    4.273924   4.008932   3.932734   4.818974   4.533917
                    6          7          8          9
     6  H    0.000000
     7  O    2.463900   0.000000
     8  H    3.143724   0.986086   0.000000
     9  H    3.144661   0.976733   1.517514   0.000000
 Symmetry turned off by external request.
 Stoichiometry    C2H5NO
 Framework group  C1[X(C2H5NO)]
 Deg. of freedom    21
 Full point group                 C1      NOp   1
 Rotational constants (GHZ):           9.2733204           3.5068141           2.6175174
 Standard basis: 6-31G(d) (6D, 7F)
    70 basis functions,   132 primitive gaussians,    70 cartesian basis functions
    16 alpha electrons       16 beta electrons
       nuclear repulsion energy       100.3652775265 Hartrees.
 NAtoms=    9 NActive=    9 NUniq=    9 SFac= 1.00D+00 NAtFMM=   60 NAOKFM=F Big=F
 Integral buffers will be    131072 words long.
 Raffenetti 2 integral format.
 Two-electron integral symmetry is turned off.
 One-electron integrals computed using PRISM.
 NBasis=    70 RedAO= T EigKep=  1.53D-03  NBF=    70
 NBsUse=    70 1.00D-06 EigRej= -1.00D+00 NBFU=    70
 Initial guess from the checkpoint file:  "Acetonitrile-Water_2.chk"
 B after Tr=     0.009189   -0.016743   -0.008326
         Rot=    0.999997    0.000434    0.000499    0.002231 Ang=   0.27 deg.
 ExpMin= 1.61D-01 ExpMax= 5.48D+03 ExpMxC= 8.25D+02 IAcc=3 IRadAn=         5 AccDes= 0.00D+00
 Harris functional with IExCor=  402 and IRadAn=       5 diagonalized for initial guess.
 HarFok:  IExCor=  402 AccDes= 0.00D+00 IRadAn=         5 IDoV= 1 UseB2=F ITyADJ=14
 ICtDFT=  3500011 ScaDFX=  1.000000  1.000000  1.000000  1.000000
 FoFCou: FMM=F IPFlag=           0 FMFlag=      100000 FMFlg1=           0
         NFxFlg=           0 DoJE=T BraDBF=F KetDBF=T FulRan=T
         wScrn=  0.000000 ICntrl=       500 IOpCl=  0 I1Cent=   200000004 NGrid=           0
         NMat0=    1 NMatS0=      1 NMatT0=    0 NMatD0=    1 NMtDS0=    0 NMtDT0=    0
 Symmetry not used in FoFCou.
 Keep R1 ints in memory in canonical form, NReq=10237397.
 Requested convergence on RMS density matrix=1.00D-08 within 128 cycles.
 Requested convergence on MAX density matrix=1.00D-06.
 Requested convergence on             energy=1.00D-06.
 No special actions if energy rises.
 Integral accuracy reduced to 1.0D-05 until final iterations.
 Initial convergence to 1.0D-05 achieved.  Increase integral accuracy.
 SCF Done:  E(RB3LYP) =  -209.167280147     A.U. after   12 cycles
            NFock= 12  Conv=0.25D-08     -V/T= 2.0093
 Calling FoFJK, ICntrl=      2127 FMM=F ISym2X=0 I1Cent= 0 IOpClX= 0 NMat=1 NMatS=1 NMatT=0.
 -------------------------------------------------------------------
 Center     Atomic                   Forces (Hartrees/Bohr)
 Number     Number              X              Y              Z
 -------------------------------------------------------------------
      1        7           0.002573298    0.000120015   -0.001100170
      2        6           0.003431113    0.003459863    0.000224526
      3        6          -0.000331768   -0.004575021    0.000408356
      4        1          -0.000557209    0.000802941   -0.000237260
      5        1          -0.001049744    0.000561436    0.000935646
      6        1          -0.002783057   -0.000601920   -0.000333613
      7        8           0.004339383    0.014642345    0.013869090
      8        1          -0.003711278   -0.007296881   -0.012740902
      9        1          -0.001910738   -0.007112777   -0.001025672
 -------------------------------------------------------------------
 Cartesian Forces:  Max     0.014642345 RMS     0.005356181

 GradGradGradGradGradGradGradGradGradGradGradGradGradGradGradGradGradGrad
 Berny optimization.
 Using GEDIIS/GDIIS optimizer.
 FormGI is forming the generalized inverse of G from B-inverse, IUseBI=4.
 Internal  Forces:  Max     0.014537454 RMS     0.003535579
 Search for a local minimum.
 Step number   5 out of a maximum of   38
 All quantities printed in internal units (Hartrees-Bohrs-Radians)
 Mixed Optimization -- RFO/linear search
 Update second derivatives using D2CorX and points    4    5
 DE= -1.72D-03 DEPred=-1.27D-03 R= 1.35D+00
 TightC=F SS=  1.41D+00  RLast= 1.72D-01 DXNew= 2.4000D+00 5.1473D-01
 Trust test= 1.35D+00 RLast= 1.72D-01 DXMaxT set to 1.43D+00
 ITU=  1  1  1  1  0
 Use linear search instead of GDIIS.
     Eigenvalues ---    0.00334   0.00498   0.01270   0.02197   0.02302
     Eigenvalues ---    0.03615   0.08496   0.10313   0.10507   0.15180
     Eigenvalues ---    0.16000   0.16315   0.16493   0.19039   0.34347
     Eigenvalues ---    0.34368   0.34442   0.38029   0.54950   0.86814
     Eigenvalues ---    1.24757
 RFO step:  Lambda=-2.08255310D-03 EMin= 3.34477669D-03
 Quartic linear search produced a step of  0.63850.
 Iteration  1 RMS(Cart)=  0.10501625 RMS(Int)=  0.03231848
 Iteration  2 RMS(Cart)=  0.05016560 RMS(Int)=  0.00108575
 Iteration  3 RMS(Cart)=  0.00122052 RMS(Int)=  0.00059422
 Iteration  4 RMS(Cart)=  0.00000084 RMS(Int)=  0.00059422
 Variable       Old X    -DE/DX   Delta X   Delta X   Delta X     New X
                                 (Linear)    (Quad)   (Total)
    R1        2.19087   0.00166   0.00210   0.00132   0.00376   2.19464
    R2        6.96511   0.00141   0.04336   0.33567   0.37837   7.34348
    R3        2.75782   0.00189   0.00229   0.00055   0.00284   2.76065
    R4        2.06920  -0.00044  -0.00041  -0.00013  -0.00055   2.06865
    R5        2.06926  -0.00037  -0.00053   0.00029  -0.00024   2.06902
    R6        2.07050  -0.00050  -0.00024  -0.00070  -0.00094   2.06956
    R7        6.17086  -0.00109   0.03128   0.12210   0.15402   6.32487
    R8        1.86343  -0.01454  -0.00550  -0.01444  -0.01994   1.84349
    R9        1.84576  -0.00607  -0.00040  -0.00645  -0.00685   1.83891
    A1        1.92106   0.00029   0.00172  -0.00386  -0.00219   1.91887
    A2        1.91952   0.00131   0.00050   0.00584   0.00626   1.92578
    A3        1.87512   0.00382   0.01225   0.01030   0.02245   1.89757
    A4        1.90542  -0.00128  -0.00409  -0.00532  -0.00943   1.89599
    A5        1.92111  -0.00190  -0.00522  -0.00248  -0.00777   1.91334
    A6        1.92154  -0.00218  -0.00485  -0.00426  -0.00924   1.91229
    A7        1.38354  -0.00400  -0.02197  -0.13160  -0.15478   1.22876
    A8        2.10940  -0.00150   0.00108  -0.02678  -0.02675   2.08265
    A9        2.11496  -0.00211   0.00406  -0.04712  -0.04291   2.07205
   A10        2.22027  -0.00236  -0.01023  -0.04385  -0.05435   2.16592
   A11        2.21855  -0.00179  -0.01308  -0.02545  -0.03993   2.17862
   A12        1.76750   0.00425   0.05182   0.03236   0.08279   1.85030
   A13        3.16422  -0.00315  -0.01536  -0.01632  -0.03046   3.13376
   A14        3.16751  -0.00218   0.02463  -0.17024  -0.14592   3.02158
    D1       -2.08991  -0.00025  -0.00196  -0.00256  -0.00456  -2.09447
    D2        2.09325   0.00032   0.00170   0.00277   0.00455   2.09780
    D3        0.00185  -0.00009  -0.00001  -0.00158  -0.00163   0.00022
    D4        1.80280  -0.00059  -0.05998   0.15558   0.09485   1.89765
    D5       -1.82880   0.00079   0.03120   0.05164   0.08327  -1.74553
         Item               Value     Threshold  Converged?
 Maximum Force            0.014537     0.000450     NO 
 RMS     Force            0.003536     0.000300     NO 
 Maximum Displacement     0.334244     0.001800     NO 
 RMS     Displacement     0.150013     0.001200     NO 
 Predicted change in Energy=-1.446930D-03
 GradGradGradGradGradGradGradGradGradGradGradGradGradGradGradGradGradGrad

                          Input orientation:                          
 ---------------------------------------------------------------------
 Center     Atomic      Atomic             Coordinates (Angstroms)
 Number     Number       Type             X           Y           Z
 ---------------------------------------------------------------------
      1          7           0        1.282333   -0.658637   -0.337112
      2          6           0       -1.176291    0.145083    0.067177
      3          6           0        0.193687   -0.336285   -0.092825
      4          1           0       -1.733693   -0.527440    0.726986
      5          1           0       -1.682397    0.182106   -0.903002
      6          1           0       -1.147418    1.148798    0.504328
      7          8           0        0.230846    2.732495    1.242640
      8          1           0        0.470901    2.923027    2.168782
      9          1           0        0.401732    3.552253    0.746925
 ---------------------------------------------------------------------
                    Distance matrix (angstroms):
                    1          2          3          4          5
     1  N    0.000000
     2  C    2.618062   0.000000
     3  C    1.161352   1.460875   0.000000
     4  H    3.200927   1.094683   2.103193   0.000000
     5  H    3.133163   1.094880   2.108271   1.778468   0.000000
     6  H    3.143014   1.095161   2.088212   1.789712   1.789211
     7  O    3.886003   3.171191   3.346978   3.840897   3.843016
     8  H    4.445924   3.853175   3.976787   4.341052   4.645988
     9  H    4.436461   3.815891   3.983616   4.604816   4.292289
                    6          7          8          9
     6  H    0.000000
     7  O    2.225492   0.000000
     8  H    2.921858   0.975534   0.000000
     9  H    2.869724   0.973107   1.556401   0.000000
 Symmetry turned off by external request.
 Stoichiometry    C2H5NO
 Framework group  C1[X(C2H5NO)]
 Deg. of freedom    21
 Full point group                 C1      NOp   1
 Rotational constants (GHZ):          10.0658123           3.3256642           2.5724961
 Standard basis: 6-31G(d) (6D, 7F)
    70 basis functions,   132 primitive gaussians,    70 cartesian basis functions
    16 alpha electrons       16 beta electrons
       nuclear repulsion energy       100.4297667864 Hartrees.
 NAtoms=    9 NActive=    9 NUniq=    9 SFac= 1.00D+00 NAtFMM=   60 NAOKFM=F Big=F
 Integral buffers will be    131072 words long.
 Raffenetti 2 integral format.
 Two-electron integral symmetry is turned off.
 One-electron integrals computed using PRISM.
 NBasis=    70 RedAO= T EigKep=  1.62D-03  NBF=    70
 NBsUse=    70 1.00D-06 EigRej= -1.00D+00 NBFU=    70
 Initial guess from the checkpoint file:  "Acetonitrile-Water_2.chk"
 B after Tr=    -0.013990   -0.075109   -0.027347
         Rot=    0.999988   -0.001548   -0.004372   -0.001817 Ang=  -0.57 deg.
 ExpMin= 1.61D-01 ExpMax= 5.48D+03 ExpMxC= 8.25D+02 IAcc=3 IRadAn=         5 AccDes= 0.00D+00
 Harris functional with IExCor=  402 and IRadAn=       5 diagonalized for initial guess.
 HarFok:  IExCor=  402 AccDes= 0.00D+00 IRadAn=         5 IDoV= 1 UseB2=F ITyADJ=14
 ICtDFT=  3500011 ScaDFX=  1.000000  1.000000  1.000000  1.000000
 FoFCou: FMM=F IPFlag=           0 FMFlag=      100000 FMFlg1=           0
         NFxFlg=           0 DoJE=T BraDBF=F KetDBF=T FulRan=T
         wScrn=  0.000000 ICntrl=       500 IOpCl=  0 I1Cent=   200000004 NGrid=           0
         NMat0=    1 NMatS0=      1 NMatT0=    0 NMatD0=    1 NMtDS0=    0 NMtDT0=    0
 Symmetry not used in FoFCou.
 Keep R1 ints in memory in canonical form, NReq=10237397.
 Requested convergence on RMS density matrix=1.00D-08 within 128 cycles.
 Requested convergence on MAX density matrix=1.00D-06.
 Requested convergence on             energy=1.00D-06.
 No special actions if energy rises.
 Integral accuracy reduced to 1.0D-05 until final iterations.
 Initial convergence to 1.0D-05 achieved.  Increase integral accuracy.
 SCF Done:  E(RB3LYP) =  -209.167808389     A.U. after   12 cycles
            NFock= 12  Conv=0.76D-08     -V/T= 2.0092
 Calling FoFJK, ICntrl=      2127 FMM=F ISym2X=0 I1Cent= 0 IOpClX= 0 NMat=1 NMatS=1 NMatT=0.
 -------------------------------------------------------------------
 Center     Atomic                   Forces (Hartrees/Bohr)
 Number     Number              X              Y              Z
 -------------------------------------------------------------------
      1        7          -0.001028218   -0.002210138    0.004458397
      2        6           0.000133045   -0.001990024    0.004747774
      3        6           0.002004326    0.003466308   -0.009791729
      4        1          -0.001471045    0.000720247    0.000118566
      5        1           0.000728116   -0.000602704   -0.000236714
      6        1          -0.000172035   -0.000600168    0.000214450
      7        8          -0.000357666    0.003123331    0.003300897
      8        1          -0.000537964    0.001197939   -0.007946017
      9        1           0.000701440   -0.003104790    0.005134376
 -------------------------------------------------------------------
 Cartesian Forces:  Max     0.009791729 RMS     0.003279946

 GradGradGradGradGradGradGradGradGradGradGradGradGradGradGradGradGradGrad
 Berny optimization.
 Using GEDIIS/GDIIS optimizer.
 FormGI is forming the generalized inverse of G from B-inverse, IUseBI=4.
 Internal  Forces:  Max     0.009439499 RMS     0.002763216
 Search for a local minimum.
 Step number   6 out of a maximum of   38
 All quantities printed in internal units (Hartrees-Bohrs-Radians)
 Mixed Optimization -- RFO/linear search
 Update second derivatives using D2CorX and points    4    5    6
 DE= -5.28D-04 DEPred=-1.45D-03 R= 3.65D-01
 Trust test= 3.65D-01 RLast= 4.94D-01 DXMaxT set to 1.43D+00
 ITU=  0  1  1  1  1  0
 Use linear search instead of GDIIS.
     Eigenvalues ---    0.00216   0.00664   0.01270   0.02261   0.02948
     Eigenvalues ---    0.04552   0.09150   0.10244   0.10391   0.13682
     Eigenvalues ---    0.16000   0.16396   0.16677   0.19040   0.34352
     Eigenvalues ---    0.34374   0.34451   0.38096   0.55118   0.81740
     Eigenvalues ---    1.23177
 RFO step:  Lambda=-1.98864703D-03 EMin= 2.16149877D-03
 Quartic linear search produced a step of -0.37131.
 Iteration  1 RMS(Cart)=  0.09428104 RMS(Int)=  0.01270129
 Iteration  2 RMS(Cart)=  0.02142108 RMS(Int)=  0.00079683
 Iteration  3 RMS(Cart)=  0.00030010 RMS(Int)=  0.00076108
 Iteration  4 RMS(Cart)=  0.00000008 RMS(Int)=  0.00076108
 Variable       Old X    -DE/DX   Delta X   Delta X   Delta X     New X
                                 (Linear)    (Quad)   (Total)
    R1        2.19464  -0.00147  -0.00140   0.00240   0.00111   2.19575
    R2        7.34348   0.00042  -0.14049   0.39973   0.25906   7.60255
    R3        2.76065   0.00045  -0.00105   0.00300   0.00195   2.76260
    R4        2.06865   0.00038   0.00020   0.00023   0.00043   2.06908
    R5        2.06902  -0.00015   0.00009  -0.00035  -0.00026   2.06876
    R6        2.06956  -0.00047   0.00035  -0.00159  -0.00124   2.06831
    R7        6.32487   0.00088  -0.05719   0.16141   0.10439   6.42927
    R8        1.84349  -0.00744   0.00740  -0.02548  -0.01808   1.82541
    R9        1.83891  -0.00511   0.00254  -0.01130  -0.00875   1.83015
    A1        1.91887   0.00263   0.00081   0.00705   0.00785   1.92672
    A2        1.92578  -0.00187  -0.00232  -0.00155  -0.00386   1.92192
    A3        1.89757   0.00010  -0.00834   0.02064   0.01230   1.90987
    A4        1.89599  -0.00045   0.00350  -0.01034  -0.00683   1.88916
    A5        1.91334  -0.00091   0.00288  -0.00920  -0.00635   1.90699
    A6        1.91229   0.00050   0.00343  -0.00680  -0.00334   1.90896
    A7        1.22876   0.00048   0.05747  -0.15822  -0.10105   1.12771
    A8        2.08265  -0.00062   0.00993  -0.05741  -0.04654   2.03611
    A9        2.07205   0.00190   0.01593  -0.04014  -0.02539   2.04666
   A10        2.16592   0.00226   0.02018  -0.03993  -0.02242   2.14350
   A11        2.17862  -0.00003   0.01483  -0.05682  -0.04263   2.13599
   A12        1.85030  -0.00328  -0.03074   0.04966   0.01687   1.86717
   A13        3.13376   0.00072   0.01131  -0.02185  -0.01024   3.12352
   A14        3.02158   0.00944   0.05418   0.17029   0.22497   3.24656
    D1       -2.09447  -0.00025   0.00169  -0.00728  -0.00562  -2.10009
    D2        2.09780  -0.00018  -0.00169   0.00203   0.00032   2.09812
    D3        0.00022   0.00029   0.00061  -0.00159  -0.00092  -0.00071
    D4        1.89765   0.00140  -0.03522  -0.05422  -0.09009   1.80756
    D5       -1.74553  -0.00226  -0.03092  -0.16736  -0.19713  -1.94266
         Item               Value     Threshold  Converged?
 Maximum Force            0.009439     0.000450     NO 
 RMS     Force            0.002763     0.000300     NO 
 Maximum Displacement     0.262871     0.001800     NO 
 RMS     Displacement     0.111233     0.001200     NO 
 Predicted change in Energy=-1.564105D-03
 GradGradGradGradGradGradGradGradGradGradGradGradGradGradGradGradGradGrad

                          Input orientation:                          
 ---------------------------------------------------------------------
 Center     Atomic      Atomic             Coordinates (Angstroms)
 Number     Number       Type             X           Y           Z
 ---------------------------------------------------------------------
      1          7           0        1.269634   -0.797742   -0.326715
      2          6           0       -1.126328    0.183358    0.080035
      3          6           0        0.205371   -0.347030   -0.207086
      4          1           0       -1.661861   -0.481026    0.766061
      5          1           0       -1.707588    0.262169   -0.844293
      6          1           0       -1.033114    1.174019    0.535933
      7          8           0        0.141671    2.739797    1.222093
      8          1           0        0.344709    2.889199    2.154589
      9          1           0        0.407205    3.538656    0.743282
 ---------------------------------------------------------------------
                    Distance matrix (angstroms):
                    1          2          3          4          5
     1  N    0.000000
     2  C    2.620809   0.000000
     3  C    1.161942   1.461907   0.000000
     4  H    3.144540   1.094912   2.109863   0.000000
     5  H    3.202367   1.094741   2.106317   1.774167   0.000000
     6  H    3.151928   1.094505   2.097501   1.785345   1.786452
     7  O    4.023094   3.073678   3.402221   3.719461   3.718649
     8  H    4.539371   3.713394   4.008753   4.160859   4.484027
     9  H    4.548959   3.748286   4.005308   4.520995   4.210476
                    6          7          8          9
     6  H    0.000000
     7  O    2.074270   0.000000
     8  H    2.731352   0.965968   0.000000
     9  H    2.776512   0.968475   1.554827   0.000000
 Symmetry turned off by external request.
 Stoichiometry    C2H5NO
 Framework group  C1[X(C2H5NO)]
 Deg. of freedom    21
 Full point group                 C1      NOp   1
 Rotational constants (GHZ):          10.9306538           3.1831603           2.5353750
 Standard basis: 6-31G(d) (6D, 7F)
    70 basis functions,   132 primitive gaussians,    70 cartesian basis functions
    16 alpha electrons       16 beta electrons
       nuclear repulsion energy       100.5640598800 Hartrees.
 NAtoms=    9 NActive=    9 NUniq=    9 SFac= 1.00D+00 NAtFMM=   60 NAOKFM=F Big=F
 Integral buffers will be    131072 words long.
 Raffenetti 2 integral format.
 Two-electron integral symmetry is turned off.
 One-electron integrals computed using PRISM.
 NBasis=    70 RedAO= T EigKep=  1.60D-03  NBF=    70
 NBsUse=    70 1.00D-06 EigRej= -1.00D+00 NBFU=    70
 Initial guess from the checkpoint file:  "Acetonitrile-Water_2.chk"
 B after Tr=    -0.019259   -0.040359   -0.030312
         Rot=    0.999975    0.001948    0.006648    0.001610 Ang=   0.82 deg.
 ExpMin= 1.61D-01 ExpMax= 5.48D+03 ExpMxC= 8.25D+02 IAcc=3 IRadAn=         5 AccDes= 0.00D+00
 Harris functional with IExCor=  402 and IRadAn=       5 diagonalized for initial guess.
 HarFok:  IExCor=  402 AccDes= 0.00D+00 IRadAn=         5 IDoV= 1 UseB2=F ITyADJ=14
 ICtDFT=  3500011 ScaDFX=  1.000000  1.000000  1.000000  1.000000
 FoFCou: FMM=F IPFlag=           0 FMFlag=      100000 FMFlg1=           0
         NFxFlg=           0 DoJE=T BraDBF=F KetDBF=T FulRan=T
         wScrn=  0.000000 ICntrl=       500 IOpCl=  0 I1Cent=   200000004 NGrid=           0
         NMat0=    1 NMatS0=      1 NMatT0=    0 NMatD0=    1 NMtDS0=    0 NMtDT0=    0
 Symmetry not used in FoFCou.
 Keep R1 ints in memory in canonical form, NReq=10237397.
 Requested convergence on RMS density matrix=1.00D-08 within 128 cycles.
 Requested convergence on MAX density matrix=1.00D-06.
 Requested convergence on             energy=1.00D-06.
 No special actions if energy rises.
 Integral accuracy reduced to 1.0D-05 until final iterations.
 Initial convergence to 1.0D-05 achieved.  Increase integral accuracy.
 SCF Done:  E(RB3LYP) =  -209.167892426     A.U. after   13 cycles
            NFock= 13  Conv=0.60D-08     -V/T= 2.0091
 Calling FoFJK, ICntrl=      2127 FMM=F ISym2X=0 I1Cent= 0 IOpClX= 0 NMat=1 NMatS=1 NMatT=0.
 -------------------------------------------------------------------
 Center     Atomic                   Forces (Hartrees/Bohr)
 Number     Number              X              Y              Z
 -------------------------------------------------------------------
      1        7          -0.002282440    0.001976484   -0.003794881
      2        6          -0.001546976   -0.000165931   -0.004668373
      3        6           0.002085903   -0.003279777    0.008176947
      4        1           0.000855245   -0.001158797   -0.000213718
      5        1          -0.000861067    0.000243482   -0.000084317
      6        1           0.000711378   -0.000462157   -0.000770128
      7        8          -0.002658832   -0.001407710   -0.002905314
      8        1           0.002312698    0.003747859    0.000326864
      9        1           0.001384092    0.000506548    0.003932919
 -------------------------------------------------------------------
 Cartesian Forces:  Max     0.008176947 RMS     0.002642784

 GradGradGradGradGradGradGradGradGradGradGradGradGradGradGradGradGradGrad
 Berny optimization.
 Using GEDIIS/GDIIS optimizer.
 FormGI is forming the generalized inverse of G from B-inverse, IUseBI=4.
 Internal  Forces:  Max     0.007733713 RMS     0.002567554
 Search for a local minimum.
 Step number   7 out of a maximum of   38
 All quantities printed in internal units (Hartrees-Bohrs-Radians)
 Mixed Optimization -- RFO/linear search
 Update second derivatives using D2CorX and points    6    7
 DE= -8.40D-05 DEPred=-1.56D-03 R= 5.37D-02
 Trust test= 5.37D-02 RLast= 4.38D-01 DXMaxT set to 7.14D-01
 ITU= -1  0  1  1  1  1  0
 Use linear search instead of GDIIS.
     Eigenvalues ---    0.00321   0.00653   0.01270   0.02302   0.02971
     Eigenvalues ---    0.06393   0.09737   0.10214   0.10410   0.13820
     Eigenvalues ---    0.16000   0.16396   0.17083   0.19097   0.34347
     Eigenvalues ---    0.34379   0.34442   0.38033   0.54968   0.79899
     Eigenvalues ---    1.21771
 RFO step:  Lambda=-7.61563326D-04 EMin= 3.20523253D-03
 Quartic linear search produced a step of -0.48792.
 Iteration  1 RMS(Cart)=  0.12268050 RMS(Int)=  0.00332186
 Iteration  2 RMS(Cart)=  0.00500910 RMS(Int)=  0.00043448
 Iteration  3 RMS(Cart)=  0.00000698 RMS(Int)=  0.00043444
 Iteration  4 RMS(Cart)=  0.00000000 RMS(Int)=  0.00043444
 Variable       Old X    -DE/DX   Delta X   Delta X   Delta X     New X
                                 (Linear)    (Quad)   (Total)
    R1        2.19575  -0.00167  -0.00054  -0.00248  -0.00278   2.19297
    R2        7.60255  -0.00114  -0.12640  -0.06804  -0.19485   7.40770
    R3        2.76260  -0.00092  -0.00095  -0.00070  -0.00166   2.76095
    R4        2.06908   0.00015  -0.00021   0.00069   0.00048   2.06956
    R5        2.06876   0.00055   0.00013   0.00048   0.00061   2.06937
    R6        2.06831  -0.00068   0.00061  -0.00140  -0.00079   2.06752
    R7        6.42927   0.00421  -0.05094   0.03209  -0.01846   6.41080
    R8        1.82541   0.00138   0.00882  -0.00131   0.00751   1.83292
    R9        1.83015  -0.00115   0.00427  -0.00335   0.00092   1.83107
    A1        1.92672  -0.00209  -0.00383   0.00151  -0.00231   1.92441
    A2        1.92192   0.00156   0.00188  -0.00197  -0.00009   1.92183
    A3        1.90987  -0.00093  -0.00600  -0.00287  -0.00887   1.90100
    A4        1.88916   0.00016   0.00333  -0.00002   0.00332   1.89247
    A5        1.90699   0.00134   0.00310   0.00177   0.00488   1.91187
    A6        1.90896   0.00000   0.00163   0.00166   0.00328   1.91223
    A7        1.12771   0.00611   0.04930   0.05965   0.10824   1.23595
    A8        2.03611   0.00169   0.02271  -0.01049   0.01199   2.04810
    A9        2.04666  -0.00020   0.01239  -0.00250   0.01035   2.05700
   A10        2.14350   0.00057   0.01094   0.01202   0.02415   2.16766
   A11        2.13599   0.00227   0.02080   0.00476   0.02610   2.16209
   A12        1.86717  -0.00437  -0.00823  -0.05270  -0.05979   1.80738
   A13        3.12352   0.00367   0.00500   0.00207   0.00778   3.13130
   A14        3.24656  -0.00773  -0.10977   0.03446  -0.07548   3.17107
    D1       -2.10009   0.00011   0.00274   0.00082   0.00358  -2.09652
    D2        2.09812   0.00024  -0.00016   0.00114   0.00099   2.09911
    D3       -0.00071  -0.00014   0.00045   0.00213   0.00256   0.00186
    D4        1.80756   0.00258   0.04396   0.04169   0.08608   1.89364
    D5       -1.94266  -0.00192   0.09618  -0.04838   0.04720  -1.89546
         Item               Value     Threshold  Converged?
 Maximum Force            0.007734     0.000450     NO 
 RMS     Force            0.002568     0.000300     NO 
 Maximum Displacement     0.266767     0.001800     NO 
 RMS     Displacement     0.120167     0.001200     NO 
 Predicted change in Energy=-9.628562D-04
 GradGradGradGradGradGradGradGradGradGradGradGradGradGradGradGradGradGrad

                          Input orientation:                          
 ---------------------------------------------------------------------
 Center     Atomic      Atomic             Coordinates (Angstroms)
 Number     Number       Type             X           Y           Z
 ---------------------------------------------------------------------
      1          7           0        1.285416   -0.670761   -0.289565
      2          6           0       -1.187571    0.126956    0.055041
      3          6           0        0.188638   -0.315872   -0.156054
      4          1           0       -1.712240   -0.568653    0.718547
      5          1           0       -1.721918    0.164025   -0.900083
      6          1           0       -1.174281    1.123554    0.506306
      7          8           0        0.214134    2.771934    1.248771
      8          1           0        0.477569    2.951976    2.164725
      9          1           0        0.469951    3.578242    0.776212
 ---------------------------------------------------------------------
                    Distance matrix (angstroms):
                    1          2          3          4          5
     1  N    0.000000
     2  C    2.621216   0.000000
     3  C    1.160471   1.461031   0.000000
     4  H    3.164278   1.095166   2.107644   0.000000
     5  H    3.180198   1.095062   2.105732   1.776759   0.000000
     6  H    3.146917   1.094087   2.090028   1.788298   1.788444
     7  O    3.919984   3.222682   3.392451   3.892502   3.894490
     8  H    4.449762   3.899257   4.018498   4.391073   4.690785
     9  H    4.455883   3.896004   4.014023   4.686365   4.389889
                    6          7          8          9
     6  H    0.000000
     7  O    2.279496   0.000000
     8  H    2.970200   0.969941   0.000000
     9  H    2.966789   0.968962   1.523232   0.000000
 Symmetry turned off by external request.
 Stoichiometry    C2H5NO
 Framework group  C1[X(C2H5NO)]
 Deg. of freedom    21
 Full point group                 C1      NOp   1
 Rotational constants (GHZ):           9.9615013           3.2566664           2.5219657
 Standard basis: 6-31G(d) (6D, 7F)
    70 basis functions,   132 primitive gaussians,    70 cartesian basis functions
    16 alpha electrons       16 beta electrons
       nuclear repulsion energy       100.0454469786 Hartrees.
 NAtoms=    9 NActive=    9 NUniq=    9 SFac= 1.00D+00 NAtFMM=   60 NAOKFM=F Big=F
 Integral buffers will be    131072 words long.
 Raffenetti 2 integral format.
 Two-electron integral symmetry is turned off.
 One-electron integrals computed using PRISM.
 NBasis=    70 RedAO= T EigKep=  1.54D-03  NBF=    70
 NBsUse=    70 1.00D-06 EigRej= -1.00D+00 NBFU=    70
 Initial guess from the checkpoint file:  "Acetonitrile-Water_2.chk"
 B after Tr=     0.014625    0.051573    0.030019
         Rot=    0.999998   -0.000736   -0.001195   -0.001314 Ang=  -0.22 deg.
 ExpMin= 1.61D-01 ExpMax= 5.48D+03 ExpMxC= 8.25D+02 IAcc=3 IRadAn=         5 AccDes= 0.00D+00
 Harris functional with IExCor=  402 and IRadAn=       5 diagonalized for initial guess.
 HarFok:  IExCor=  402 AccDes= 0.00D+00 IRadAn=         5 IDoV= 1 UseB2=F ITyADJ=14
 ICtDFT=  3500011 ScaDFX=  1.000000  1.000000  1.000000  1.000000
[...]
 Vibration     4          0.663              1.762              1.727
 Vibration     5          0.736              1.549              1.111
 Vibration     6          0.761              1.483              0.985
 Vibration     7          0.763              1.478              0.976
                       Q            Log10(Q)             Ln(Q)
 Total Bot       0.894821D-18        -18.048264        -41.557663
 Total V=0       0.501970D+14         13.700678         31.546976
 Vib (Bot)       0.614474D-30        -30.211497        -69.564542
 Vib (Bot)    1  0.251279D+01          0.400156          0.921393
 Vib (Bot)    2  0.164210D+01          0.215399          0.495974
 Vib (Bot)    3  0.150090D+01          0.176351          0.406063
 Vib (Bot)    4  0.778893D+00         -0.108522         -0.249881
 Vib (Bot)    5  0.504725D+00         -0.296945         -0.683741
 Vib (Bot)    6  0.454366D+00         -0.342594         -0.788853
 Vib (Bot)    7  0.450844D+00         -0.345973         -0.796633
 Vib (V=0)       0.344703D+02          1.537445          3.540097
 Vib (V=0)    1  0.306205D+01          0.486012          1.119085
 Vib (V=0)    2  0.221653D+01          0.345674          0.795944
 Vib (V=0)    3  0.208199D+01          0.318479          0.733324
 Vib (V=0)    4  0.142557D+01          0.153988          0.354570
 Vib (V=0)    5  0.121046D+01          0.082949          0.190997
 Vib (V=0)    6  0.117561D+01          0.070263          0.161787
 Vib (V=0)    7  0.117325D+01          0.069389          0.159775
 Electronic      0.100000D+01          0.000000          0.000000
 Translational   0.178296D+08          7.251142         16.696370
 Rotational      0.816754D+05          4.912092         11.310509
 -------------------------------------------------------------------
 Center     Atomic                   Forces (Hartrees/Bohr)
 Number     Number              X              Y              Z
 -------------------------------------------------------------------
      1        7          -0.000005708   -0.000000393    0.000002041
      2        6          -0.000011369    0.000003883   -0.000014677
      3        6           0.000008198   -0.000001823   -0.000002652
      4        1           0.000002973    0.000004974    0.000007466
      5        1           0.000003688   -0.000005965    0.000001653
      6        1           0.000004902    0.000000382    0.000003395
      7        8          -0.000012289    0.000003890    0.000005401
      8        1           0.000006712   -0.000000406   -0.000013173
      9        1           0.000002894   -0.000004542    0.000010547
 -------------------------------------------------------------------
 Cartesian Forces:  Max     0.000014677 RMS     0.000006682
 FormGI is forming the generalized inverse of G from B-inverse, IUseBI=4.

 GradGradGradGradGradGradGradGradGradGradGradGradGradGradGradGradGradGrad
 Berny optimization.
 Internal  Forces:  Max     0.000012680 RMS     0.000005815
 Search for a local minimum.
 Step number   1 out of a maximum of    2
 All quantities printed in internal units (Hartrees-Bohrs-Radians)
 Second derivative matrix not updated -- analytic derivatives used.
 ITU=  0
     Eigenvalues ---   -0.00108   0.00216   0.00218   0.00662   0.00938
     Eigenvalues ---    0.02112   0.05975   0.07819   0.07906   0.08684
     Eigenvalues ---    0.10352   0.13119   0.15779   0.16075   0.33875
     Eigenvalues ---    0.34312   0.34511   0.36341   0.51023   0.52119
     Eigenvalues ---    1.24148
 Eigenvalue     1 is  -1.08D-03 should be greater than     0.000000 Eigenvector:
                          A8        A9        A10       A11       D4
   1                    0.47884  -0.47849   0.39142  -0.39129  -0.34349
                          D5        A14       D1        D2        D3
   1                   -0.34255  -0.00721  -0.00453  -0.00451  -0.00351
 Angle between quadratic step and forces=  60.20 degrees.
 Linear search not attempted -- first point.
 Iteration  1 RMS(Cart)=  0.00244229 RMS(Int)=  0.00000380
 Iteration  2 RMS(Cart)=  0.00000374 RMS(Int)=  0.00000048
 Iteration  3 RMS(Cart)=  0.00000000 RMS(Int)=  0.00000048
 Variable       Old X    -DE/DX   Delta X   Delta X   Delta X     New X
                                 (Linear)    (Quad)   (Total)
    R1        2.19398  -0.00001   0.00000  -0.00000  -0.00000   2.19398
    R2        6.28603   0.00000   0.00000   0.00084   0.00084   6.28687
    R3        2.76018   0.00000   0.00000   0.00002   0.00002   2.76020
    R4        2.06829  -0.00000   0.00000   0.00001   0.00001   2.06830
    R5        2.06832  -0.00000   0.00000  -0.00002  -0.00002   2.06830
    R6        2.06814   0.00000   0.00000   0.00000   0.00000   2.06815
    R7        5.80203  -0.00000   0.00000   0.00029   0.00029   5.80232
    R8        1.83263  -0.00000   0.00000   0.00001   0.00001   1.83264
    R9        1.83263  -0.00001   0.00000  -0.00001  -0.00001   1.83262
    A1        1.92854  -0.00000   0.00000  -0.00010  -0.00010   1.92844
    A2        1.92839  -0.00000   0.00000   0.00007   0.00007   1.92846
    A3        1.88771  -0.00001   0.00000  -0.00007  -0.00007   1.88764
    A4        1.89714   0.00000   0.00000   0.00004   0.00004   1.89718
    A5        1.91121  -0.00000   0.00000  -0.00021  -0.00021   1.91100
    A6        1.91080   0.00001   0.00000   0.00026   0.00026   1.91105
    A7        1.50065  -0.00001   0.00000  -0.00034  -0.00034   1.50031
    A8        1.05604  -0.00001   0.00000  -0.00268  -0.00268   1.05336
    A9        1.06129   0.00000   0.00000   0.00272   0.00272   1.06400
   A10        1.24034  -0.00000   0.00000  -0.00245  -0.00245   1.23790
   A11        1.24411   0.00000   0.00000   0.00248   0.00248   1.24658
   A12        1.78538  -0.00001   0.00000  -0.00010  -0.00010   1.78529
   A13        3.11219  -0.00001   0.00000  -0.00007  -0.00007   3.11213
   A14        3.14160   0.00000   0.00000   0.00005   0.00005   3.14165
    D1       -2.09468   0.00001   0.00000   0.00371   0.00371  -2.09097
    D2        2.08828   0.00001   0.00000   0.00367   0.00367   2.09195
    D3       -0.00290   0.00000   0.00000   0.00336   0.00336   0.00046
    D4        2.17801   0.00001   0.00000   0.00123   0.00123   2.17924
    D5       -2.17261  -0.00000   0.00000   0.00109   0.00109  -2.17152
         Item               Value     Threshold  Converged?
 Maximum Force            0.000013     0.000450     YES
 RMS     Force            0.000006     0.000300     YES
 Maximum Displacement     0.005382     0.001800     NO 
 RMS     Displacement     0.002442     0.001200     NO 
 Predicted change in Energy=-9.435994D-08
                           ----------------------------
                           ! Non-Optimized Parameters !
                           ! (Angstroms and Degrees)  !
 --------------------------                            --------------------------
 ! Name  Definition              Value          Derivative Info.                !
 --------------------------------------------------------------------------------
 ! R1    R(1,3)                  1.161          -DE/DX =    0.0                 !
 ! R2    R(1,7)                  3.3269         -DE/DX =    0.0                 !
 ! R3    R(2,3)                  1.4606         -DE/DX =    0.0                 !
 ! R4    R(2,4)                  1.0945         -DE/DX =    0.0                 !
 ! R5    R(2,5)                  1.0945         -DE/DX =    0.0                 !
 ! R6    R(2,6)                  1.0944         -DE/DX =    0.0                 !
 ! R7    R(3,7)                  3.0705         -DE/DX =    0.0                 !
 ! R8    R(7,8)                  0.9698         -DE/DX =    0.0                 !
 ! R9    R(7,9)                  0.9698         -DE/DX =    0.0                 !
 ! A1    A(3,2,4)              110.4917         -DE/DX =    0.0                 !
 ! A2    A(3,2,5)              110.4927         -DE/DX =    0.0                 !
 ! A3    A(3,2,6)              108.1539         -DE/DX =    0.0                 !
 ! A4    A(4,2,5)              108.7006         -DE/DX =    0.0                 !
 ! A5    A(4,2,6)              109.4924         -DE/DX =    0.0                 !
 ! A6    A(5,2,6)              109.4953         -DE/DX =    0.0                 !
 ! A7    A(2,3,7)               85.9613         -DE/DX =    0.0                 !
 ! A8    A(1,7,8)               60.3529         -DE/DX =    0.0                 !
 ! A9    A(1,7,9)               60.9629         -DE/DX =    0.0                 !
 ! A10   A(3,7,8)               70.9262         -DE/DX =    0.0                 !
 ! A11   A(3,7,9)               71.4241         -DE/DX =    0.0                 !
 ! A12   A(8,7,9)              102.2893         -DE/DX =    0.0                 !
 ! A13   L(1,3,2,7,-1)         178.3118         -DE/DX =    0.0                 !
 ! A14   L(1,3,2,7,-2)         180.0034         -DE/DX =    0.0                 !
 ! D1    D(4,2,3,7)           -119.8035         -DE/DX =    0.0                 !
 ! D2    D(5,2,3,7)            119.8598         -DE/DX =    0.0                 !
 ! D3    D(6,2,3,7)              0.0261         -DE/DX =    0.0                 !
 ! D4    D(2,3,7,8)            124.8614         -DE/DX =    0.0                 !
 ! D5    D(2,3,7,9)           -124.4191         -DE/DX =    0.0                 !
 --------------------------------------------------------------------------------
 GradGradGradGradGradGradGradGradGradGradGradGradGradGradGradGradGradGrad


 ----------------------------------------------------------------------

 Electric dipole moment (input orientation):
 (Debye = 10**-18 statcoulomb cm , SI units = C m)
                  (au)            (Debye)         (10**-30 SI)
   Tot        0.857488D+00      0.217952D+01      0.727008D+01
   x         -0.816942D+00     -0.207646D+01     -0.692633D+01
   y         -0.234792D+00     -0.596782D+00     -0.199065D+01
   z         -0.112972D+00     -0.287147D+00     -0.957819D+00

 Dipole polarizability, Alpha (input orientation).
 (esu units = cm**3 , SI units = C**2 m**2 J**-1)
 Alpha(0;0):
               (au)            (10**-24 esu)      (10**-40 SI)
   iso        0.288933D+02      0.428155D+01      0.476386D+01
   aniso      0.143992D+02      0.213375D+01      0.237411D+01
   xx         0.384890D+02      0.570347D+01      0.634597D+01
   yx        -0.232260D-01     -0.344174D-02     -0.382946D-02
   yy         0.242457D+02      0.359285D+01      0.399758D+01
   zx         0.896425D-01      0.132836D-01      0.147801D-01
   zy         0.155762D+00      0.230815D-01      0.256816D-01
   zz         0.239453D+02      0.354832D+01      0.394804D+01

 ----------------------------------------------------------------------

 Dipole orientation:
     7          0.38803278          0.48814764         -2.47044769
     6         -0.70477703         -0.84081360          2.17478274
     6         -0.07474509         -0.07415338         -0.40085483
     1         -1.60660334          0.71671185          3.19392758
     1          1.00080832         -1.40459981          3.19999961
     1         -2.00775115         -2.44344671          2.06970816
     8         -3.55875137         -4.39051865         -2.10209395
     1         -4.12401506         -2.82926600         -2.87766874
     1         -1.90972495         -4.63042757         -2.86476819

 Electric dipole moment (dipole orientation):
 (Debye = 10**-18 statcoulomb cm , SI units = C m)
                  (au)            (Debye)         (10**-30 SI)
   Tot        0.857488D+00      0.217952D+01      0.727008D+01
   x          0.000000D+00      0.000000D+00      0.000000D+00
   y          0.000000D+00      0.000000D+00      0.000000D+00
   z          0.857488D+00      0.217952D+01      0.727008D+01

 Dipole polarizability, Alpha (dipole orientation).
 (esu units = cm**3 , SI units = C**2 m**2 J**-1)
 Alpha(0;0):
               (au)            (10**-24 esu)      (10**-40 SI)
   iso        0.288933D+02      0.428155D+01      0.476386D+01
   aniso      0.143992D+02      0.213375D+01      0.237411D+01
   xx         0.245681D+02      0.364061D+01      0.405073D+01
   yx         0.847843D+00      0.125637D+00      0.139790D+00
   yy         0.249216D+02      0.369300D+01      0.410902D+01
   zx        -0.260390D+01     -0.385858D+00     -0.429325D+00
   zy        -0.315480D+01     -0.467493D+00     -0.520156D+00
   zz         0.371903D+02      0.551103D+01      0.613185D+01

 ----------------------------------------------------------------------
 Unable to Open any file for archive entry.
 1\1\GINC-NODE37\Freq\RB3LYP\6-31G(d)\C2H5N1O1\ZJ2244\30-Sep-2019\0\\#N
  Geom=AllCheck Guess=TCheck SCRF=Check GenChk RB3LYP/6-31G(d) Freq\\Op
 timization\\0,1\N,1.3456879744,0.0694239767,0.0473366193\C,-1.27282980
 39,0.1863113213,0.0818650727\C,0.1852170614,0.103840102,0.0548854583\H
 ,-1.6911464869,-0.620964926,0.6911526027\H,-1.679765388,0.1083013687,-
 0.9311821805\H,-1.5518548941,1.1523613854,0.5138772054\O,0.1513844461,
 2.9081120847,1.3045496859\H,0.6736036498,2.3179898895,1.8698216942\H,0
 .6794034411,2.9360247976,0.491593842\\Version=ES64L-G16RevC.01\HF=-209
 .1724256\RMSD=1.986e-09\RMSF=6.682e-06\ZeroPoint=0.0690243\Thermal=0.0
 755653\ETot=-209.0968604\HTot=-209.0959162\GTot=-209.1331875\Dipole=-0
 .8169423,-0.2347921,-0.1129723\DipoleDeriv=-0.3459572,-0.0327469,-0.01
 47608,-0.0147426,-0.3751149,-0.0211783,-0.0066978,-0.0213739,-0.337362
 4,-0.0190913,0.0144045,0.0055516,0.0325383,0.0440736,-0.0318887,0.0137
 208,-0.0318101,0.1012737,0.2515415,0.0181154,0.0093043,-0.0236964,0.13
 3309,0.0257687,-0.0093566,0.0259751,0.0867581,0.0231912,-0.0159281,0.0
 104077,-0.0396863,0.0225772,0.0630196,0.0236403,0.0645421,0.0604124,0.
 0238549,-0.002225,-0.0182652,-0.0080852,0.1071854,-0.0103195,-0.044864
 1,-0.0117614,-0.0248388,0.0778476,0.0543268,0.0239697,0.0328214,0.0883
 657,-0.0060123,0.0143874,-0.0060316,0.0990614,-0.4184333,-0.1904878,-0
 .0854053,-0.1423641,-0.7251866,-0.1372829,-0.0638592,-0.1376336,-0.480
 8469,0.2039548,0.1074377,-0.0333663,0.0981631,0.2956351,0.1047133,-0.0
 009216,0.1155878,0.3044803,0.2030918,0.0471035,0.1025642,0.0650518,0.4
 091555,0.0131801,0.0739509,0.0025056,0.1910622\Polar=38.4889538,-0.023
 226,24.2457284,0.0896425,0.1557615,23.9452708\Quadrupole=0.298943,-2.2
 411447,1.9422017,3.1040577,1.3547924,-2.3285782\PG=C01 [X(C2H5N1O1)]\N
 Imag=1\\1.26560498,-0.03730054,0.02147831,-0.00826204,0.00044451,0.020
 06202,-0.00726683,0.00162581,0.00053519,0.51026980,0.00106463,0.020284
 06,-0.00013072,0.01199091,0.56143612,0.00028634,-0.00012665,0.02053579
 ,0.00499360,0.00048617,0.56058495,-1.25857507,0.03537140,0.00758669,-0
 .27258494,0.00933125,0.00285055,1.59203415,0.03630978,-0.03988391,0.00
 046047,0.00921112,-0.07557683,0.00092367,-0.05022431,0.11325824,0.0080
 0181,0.00045367,-0.04011985,0.00280206,0.00092375,-0.07704856,-0.01244
 550,0.00026511,0.11195353,0.00027653,0.00346108,-0.00257699,-0.0837687
 0,-0.07457930,0.05629218,-0.02127600,-0.02764886,0.02116265,0.09509096
 ,0.00210915,-0.00060986,0.00105267,-0.07451188,-0.19628164,0.11323314,
 -0.00106996,0.00473675,-0.00530422,0.08235095,0.20820656,-0.00157845,0
 .00077925,0.00034041,0.05601398,0.11286576,-0.13128063,0.00259016,-0.0
 0317030,-0.00006144,-0.06216585,-0.12356790,0.13808125,0.00020096,0.00
 037625,0.00431323,-0.08168984,-0.00701116,-0.09091516,-0.02085431,-0.0
 0243981,-0.03503770,0.00565662,0.00249480,0.01214275,0.09279938,0.0002
 2683,0.00082833,-0.00051940,-0.00717267,-0.04760249,-0.01863477,0.0012
 9127,-0.00214580,0.00314379,0.01045481,0.00252283,0.02275620,0.0076904
 8,0.04621588,0.00263924,-0.00023540,-0.00102004,-0.09067999,-0.0182630
 4,-0.28201706,-0.00283814,0.00079733,0.00639312,-0.00596033,-0.0023462
 9,-0.01547090,0.10052958,0.01970635,0.30236049,-0.00091514,-0.00453163
 ,-0.00204621,-0.06325190,0.06034747,0.02701248,-0.01727506,0.03508429,
 0.01565369,0.00391662,-0.01100059,-0.00682243,0.00378419,-0.01211025,-
 0.00353267,0.07346826,-0.00299044,-0.00072019,-0.00062296,0.06066555,-
 0.26113403,-0.09474741,0.00678417,0.00145468,0.00118452,0.00588954,-0.
 01811155,-0.00942525,-0.00121492,0.00092278,0.00060455,-0.06912002,0.2
 7888211,-0.00135112,-0.00063284,0.00033099,0.02715897,-0.09474091,-0.0
 9168390,0.00292475,0.00139096,-0.00045504,-0.00683103,0.01745189,0.008
 69297,0.00896394,-0.02647649,-0.01023078,-0.03086296,0.10291518,0.0947
 9390,0.00120074,0.00116607,0.00052253,-0.00139293,-0.00088501,-0.00039
 991,-0.00197263,0.00111596,0.00048677,0.00025720,-0.00049750,-0.000195
 09,0.00025629,-0.00047431,-0.00023846,0.00117200,-0.00035451,-0.000147
 09,0.34864331,-0.00090988,-0.00287096,-0.00159293,-0.00065698,-0.00028
 723,-0.00079621,0.00145046,-0.00054368,0.00012579,-0.00014686,-0.00050
 095,-0.00029980,-0.00014373,-0.00090448,-0.00029519,0.00124715,-0.0016
 6929,0.00008902,-0.18006319,0.21496338,-0.00040218,-0.00158665,-0.0000
 1496,-0.00030774,-0.00081081,0.00116120,0.00064200,0.00011340,-0.00073
 932,-0.00005721,-0.00066296,-0.00038673,-0.00006658,0.00007776,0.00002
 736,0.00056613,0.00008469,-0.00181863,-0.08195071,-0.18865981,0.549015
 31,-0.00026618,-0.00013761,0.00007392,-0.00015918,-0.00028913,0.000297
 98,0.00025670,-0.00061031,-0.00052770,-0.00006667,-0.00011607,-0.00007
 493,-0.00008681,0.00022872,0.00011980,-0.00044836,0.00047524,-0.000610
 90,-0.17263127,0.17885341,-0.15911627,0.16281474,0.00050472,0.00005658
 ,0.00075688,-0.00052453,-0.00043120,0.00007775,-0.00113660,-0.00058866
 ,-0.00080339,0.00004459,-0.00010488,-0.00005876,0.00010087,0.00013931,
 0.00004216,0.00023237,0.00049478,-0.00037668,0.15550816,-0.18796985,0.
 18790202,-0.16201490,0.19041951,0.00087202,0.00139337,0.00063546,-0.00
 037893,-0.00039366,-0.00011580,-0.00140686,-0.00008637,-0.00002855,0.0
 0016009,0.00010585,0.00009063,0.00014548,0.00012404,0.00000104,-0.0004
 0697,-0.00016772,-0.00012545,-0.10632916,0.15362539,-0.19121438,0.1354
 4554,-0.18513558,0.21788917,-0.00026000,-0.00003083,-0.00014632,-0.000
 15548,0.00003034,-0.00041805,0.00024717,-0.00079788,-0.00009609,-0.000
 08657,0.00024111,0.00008987,-0.00006648,-0.00013488,-0.00003902,-0.000
 45059,-0.00013462,0.00075544,-0.17553270,0.00036963,0.24069256,0.01058
 702,0.00728532,-0.02810121,0.16571764,0.00098574,0.00143765,0.00015149
 ,-0.00062734,-0.00040676,-0.00041569,-0.00179768,-0.00071080,0.0000109
 9,0.00017405,0.00014274,0.00012080,0.00014722,0.00002363,-0.00001047,-
 0.00014879,-0.00011928,0.00037987,0.02448433,-0.02021694,0.00354235,-0
 .01638934,-0.00201559,0.03053468,-0.00682819,0.02186534,-0.00020561,-0
 .00048926,-0.00074982,-0.00013714,0.00006346,-0.00013600,0.00009634,-0
 .00069426,0.00010612,-0.00002350,0.00003782,-0.00000557,-0.00007555,-0
 .00017748,-0.00004324,0.00043895,0.00017440,0.00049594,0.18825113,0.03
 780373,-0.35602985,0.02439257,-0.00240439,-0.02713211,-0.21273717,-0.0
 3431402,0.38349453\\0.00000571,0.00000039,-0.00000204,0.00001137,-0.00
 000388,0.00001468,-0.00000820,0.00000182,0.00000265,-0.00000297,-0.000
 00497,-0.00000747,-0.00000369,0.00000597,-0.00000165,-0.00000490,-0.00
 000038,-0.00000340,0.00001229,-0.00000389,-0.00000540,-0.00000671,0.00
 000041,0.00001317,-0.00000289,0.00000454,-0.00001055\\\@
 The archive entry for this job was punched.


 WE HAVE SEEN THAT MAN ON THE AVERAGE DOES NOT LIVE ABOVE
 TWO-AND-TWENTY YEARS.  DURING THESE TWO AND TWENTY
 YEARS HE IS LIABLE TO TWO AND TWENTY THOUSAND EVILS,
 MANY OF WHICH ARE INCURABLE.  YET EVEN IN THIS DREADFUL STATE
 MEN STILL STRUT AND POSE ON THE STAGE OF LIFE.
 THEY MAKE LOVE AT THE RISK OF DESTRUCTION,
 INTRIGUE, CARRY ON WAR, AND FORM PROJECTS, JUST AS IF THEY
 WERE TO LIVE IN LUXURY AND HAPPINESS FOR A THOUSAND
 AGES.

                                              -- VOLTAIRE
 Job cpu time:       0 days  0 hours  1 minutes 43.8 seconds.
 Elapsed time:       0 days  0 hours  0 minutes 13.5 seconds.
 File lengths (MBytes):  RWF=      9 Int=      0 D2E=      0 Chk=      2 Scr=      1
 Normal termination of Gaussian 16 at Mon Sep 30 00:58:03 2019.
